<?xml version="1.0"?><VTKFile type="PolyData" version="0.1" byte_order="LittleEndian">
<PolyData>
<Piece NumberOfLines="5870" NumberOfPoints="5876">
<CellData Scalars=" CellData">
<DataArray type="Float32" Name="time" NumberOfComponents="1" format="ascii" >
0.157725 0.496725 0.854568 0.878027 1.22232 1.58412 1.59593 1.95978 1.97649 2.34244 2.36457 2.73269 2.73959 3.10981 3.13115 3.47623 3.84979 4.22529 4.60394 4.60753 4.98838 4.9974 5.37036 5.75564 5.762 6.14381 6.53363 6.53972 6.90617 7.29477 7.6787 8.07715 8.47167 8.87283 9.26486 9.67357 9.71616 10.1251 10.5259 10.9425 10.9673 11.383 11.7968 12.2091 12.6044 13.0344 13.0745 13.5044 13.8997 14.3381 14.3404 14.7603 15.1756 15.598 16.0476 16.5006 16.5342 16.956 17.4153 17.4478 17.9073 18.3397 18.8011 19.254 19.7182 20.172 20.6393 21.092 21.5638 22.0388 22.5349 22.5354 23.0352 23.057 23.5608 23.5688 24.0404 24.5517 24.5826 25.0889 25.5876 26.1067 26.6197 27.1167 27.648 28.1446 28.6814 29.1746 29.7091 30.2285 30.7415 31.3076 31.3193 31.8895 32.4655 32.5033 33.0847 33.1724 33.7143 34.3065 34.3642 34.906 35.4968 36.1053 36.1106 36.7248 36.7417 37.3618 37.3748 38.0009 38.0064 38.6385 38.6583 39.2968 39.3238 39.9531 40.6042 40.6065 41.178 41.8413 41.8549 42.5251 42.5387 43.2065 43.8745 44.5401 45.2382 45.2431 45.9316 46.6446 46.6927 47.4121 48.0878 48.8136 49.5585 49.5723 50.3186 51.0754 51.8464 51.8577 52.5966 53.3856 53.4401 54.2393 54.2452 55.0543 55.0936 55.8876 56.6609 57.5002 57.5274 58.3779 58.4543 59.3121 60 8.15937 9.88668 11.8076 13.971 16.4471 19.3419 22.8262 27.2035 33.0948 42.1391 60 8.30843 9.80382 11.4882 13.4164 15.6711 18.3858 21.7978 26.3937 33.4613 49.4558 60 8.73744 10.2733 12.0495 14.1552 16.7414 20.0941 24.8686 33.2544 60 9.23942 10.8635 12.6702 14.706 17.0373 19.7648 23.0515 27.1871 32.769 41.3902 60 9.71459 11.4471 13.4312 15.7525 18.5498 22.0697 26.8208 34.1598 51.0847 60 10.0598 11.6921 13.5392 15.6664 18.1741 21.2285 25.1367 30.5692 39.5422 60 10.4323 12.0036 13.785 15.8413 18.273 21.2486 25.0838 30.4862 39.7092 60 10.8602 12.4229 14.1618 16.122 18.3679 20.9975 24.1692 28.1663 33.5755 41.9779 60 11.4857 13.3346 15.5041 18.1294 21.4544 25.9928 33.1782 51.8202 60 11.8152 13.5488 15.5023 17.7397 20.3579 23.5136 27.4861 32.8514 41.1505 60 11.8684 13.2159 14.7568 16.5559 18.7175 21.4258 25.0541 30.5701 42.4955 60 12.6764 14.4525 16.4661 18.7904 21.5392 24.9031 29.239 35.3478 45.7807 60 12.725 14.085 15.6319 17.4254 19.5593 22.1939 25.6386 30.6244 39.7855 60 13.21 14.6067 16.1647 17.9264 19.953 22.3388 25.239 28.9381 34.0509 42.3824 60 13.7183 15.2216 16.9027 18.8095 21.012 23.6192 26.8141 30.9409 36.7783 46.8499 60 14.2773 15.9082 17.7199 19.7576 22.0856 24.8007 28.0579 32.129 37.5613 45.7506 60 14.6997 16.3767 18.31 20.5925 23.3789 26.9562 31.9601 40.3523 60 14.9322 16.3217 17.8519 19.5545 21.4736 23.6721 26.2457 29.349 33.2584 38.5451 46.7446 60 15.5043 17.1065 18.918 21.0017 23.4543 26.435 30.2355 35.4852 44.0274 60 15.8302 17.278 18.8681 20.6314 22.6103 24.8651 27.4852 30.6125 34.4915 39.6019 47.1098 60 16.3358 17.9338 19.7842 21.9817 24.6876 28.2099 33.2655 42.3365 60 16.6744 18.1465 19.8428 21.8442 24.2849 27.4138 31.7784 39.0488 60 17.3021 18.9671 20.8584 23.0472 25.6449 28.8401 32.9926 38.9338 49.5017 60 17.4808 18.8316 20.3486 22.0785 24.0911 26.4969 29.4881 33.4441 39.3013 50.837 60 18.4384 20.3698 22.5454 25.0357 27.9477 31.4537 35.86 41.7948 50.9199 60 18.9334 20.9024 23.1935 25.9334 29.3414 33.8524 40.5421 53.7874 60 18.9444 20.37 21.9797 23.8281 25.9986 28.6277 31.9625 36.5268 43.797 60 19.56 21.163 22.9622 25.0121 27.3945 30.2382 33.7659 38.4144 45.2467 58.3925 60 20.004 21.5468 23.2739 25.2353 27.5045 30.1966 33.5062 37.8036 43.9418 54.8101 60 20.5331 22.182 24.0819 26.3232 29.056 32.5584 37.4412 45.5644 60 20.9883 22.5901 24.384 26.4225 28.783 31.5866 35.0391 39.5342 45.988 57.5785 60 21.6963 23.5306 25.5344 27.7425 30.2011 32.9746 36.1555 39.8846 44.3909 50.086 57.8312 60 21.9674 23.7091 25.7535 28.2282 31.3643 35.6494 42.449 60 22.2321 23.6059 25.1271 26.831 28.7677 31.011 33.6766 36.9612 41.2422 47.4005 58.5213 60 22.893 24.4981 26.3295 28.4615 31.0125 34.1886 38.3991 44.6625 57.1918 60 23.6239 25.5564 27.7717 30.367 33.5004 37.4548 42.8195 51.1979 60 23.6427 25.0231 26.5882 28.3951 30.5325 33.1488 36.5226 41.28 49.4222 60 24.3054 25.9257 27.8069 30.0495 32.8263 36.4741 41.8027 51.8637 60 25.1504 27.1888 29.5413 32.3229 35.7257 40.1095 46.2798 56.7918 60 25.0974 26.5329 28.1883 30.1436 32.532 35.6016 39.9032 47.1507 60 25.765 27.3614 29.1759 31.2777 33.775 36.8522 40.8627 46.6316 57.047 60 26.1953 27.6563 29.3181 31.2447 33.5369 36.3665 40.0656 45.4177 55.2421 60 26.5732 27.9018 29.3856 31.0658 33.0024 35.288 38.0766 41.6541 46.6508 55.0009 60 27.6668 29.62 31.8498 34.4479 37.5603 41.4423 46.604 54.3292 60 27.9772 29.6863 31.6295 33.8813 36.5584 39.8599 44.1687 50.3832 60 28.4035 30.06 31.9749 34.2439 37.0287 40.6348 45.759 54.7074 60 28.8778 30.4594 32.2631 34.3617 36.871 39.9917 44.1211 50.2411 60 29.3351 30.8267 32.4948 34.3869 36.5725 39.1599 42.3308 46.4272 52.2231 60 29.845 31.3259 32.9985 34.9198 37.1769 39.9127 43.3862 48.1487 55.765 60 30.5263 32.1681 33.9939 36.0501 38.4036 41.1549 44.4665 48.6266 54.2254 60 31.0959 32.8048 34.7459 36.9921 39.6577 42.9361 47.1959 53.2881 60 31.5281 33.1716 35.0849 37.3746 40.2257 44.0064 49.6336 60 31.8944 33.3146 34.9321 36.8109 39.0518 41.8288 45.4814 50.8305 60 32.4257 33.8295 35.4269 37.2802 39.487 42.215 45.7887 50.9812 60 32.9282 34.2522 35.7534 37.4867 39.5373 42.0477 45.286 49.8546 57.6841 60 33.7935 35.4154 37.2563 39.3848 41.9076 45.0049 49.0177 54.7256 60 34.5236 36.3085 38.342 40.705 43.5252 47.0229 51.6301 58.3964 60 34.7422 36.1732 37.8197 39.7581 42.1149 45.1218 49.2801 56.0644 60 35.4307 36.9208 38.6179 40.5888 42.9392 45.8509 49.679 55.2803 60 36.1861 37.8292 39.6476 41.6831 43.9948 46.6696 49.8431 53.745 58.8124 60 36.7462 38.4079 40.2992 42.4938 45.1081 48.3415 52.581 58.7512 60 37.1114 38.5394 40.2123 42.2315 44.7792 48.2338 53.6234 60 37.7656 39.196 40.7784 42.549 44.5587 46.8822 49.636 53.0165 57.3958 60 38.4169 39.9539 41.6893 43.6821 46.0219 48.8557 52.4497 57.3672 60 38.9778 40.4639 42.1595 44.1336 46.4961 49.4379 53.3392 59.1466 60 39.5904 41.0976 42.792 44.7271 46.9824 49.6855 53.0596 57.5513 60 40.5059 42.3326 44.3833 46.7205 49.4376 52.6823 56.7105 60 40.8979 42.541 44.4144 46.5933 49.1969 52.4323 56.7072 60 41.6609 43.4447 45.457 47.7653 50.4716 53.7427 57.878 60 42.1619 43.8327 45.7259 47.91 50.4908 53.6452 57.7032 60 42.6179 44.1373 45.8746 47.903 50.3401 53.3931 57.4828 60 43.2909 44.8135 46.568 48.6379 51.1618 54.3966 58.9071 60 43.84 45.2439 46.8896 48.8782 51.3911 54.8076 60 44.9216 46.7094 48.7626 51.1738 54.0947 57.8005 60 45.7645 47.5922 49.6603 52.042 54.8494 58.2687 60 46.412 48.2493 50.3302 52.7291 55.5612 59.0182 60 46.886 48.3486 49.9441 51.6991 53.6491 55.8427 58.3499 60 48.0371 50.1207 52.49 55.236 58.5016 60 48.2076 49.7123 51.4469 53.4946 55.9937 59.2014 60 48.9486 50.4216 52.057 53.8951 55.9932 58.4373 60 49.7994 51.408 53.2313 55.3354 57.8229 60 50.3946 51.8419 53.5084 55.4728 57.8652 60 51.3053 52.929 54.7989 57.0034 59.6886 60 52.0855 53.7005 55.5484 57.7079 60 52.8439 54.4087 56.1915 58.2631 60 53.5849 55.1118 56.8228 58.7685 60 54.2095 55.5601 57.0787 58.8133 60 55.1836 56.8546 58.7401 60 55.8689 57.4028 59.1501 60 56.7102 58.2415 59.9621 60 57.5213 59.0448 60 58.4222 60 59.3806 60 60 60 0.196188 0.507327 0.838835 0.85247 1.18596 1.18809 1.50824 1.84553 1.84587 2.18513 2.19336 2.52097 2.85651 3.18653 3.53374 3.54081 3.89015 3.90014 4.25167 4.26114 4.59573 4.95083 5.28423 5.64427 5.65721 6.00583 6.37038 6.39304 6.75339 7.11727 7.48889 7.53311 7.89102 8.26764 8.27557 8.65471 8.66938 9.03 9.41156 9.7757 10.1644 10.5538 10.9311 11.3281 11.351 11.7509 11.8043 12.1989 12.6047 12.6062 12.9962 13.4076 13.4154 13.8297 13.839 14.2535 14.6739 14.7025 15.1222 15.5489 15.5855 16.0034 16.4205 16.857 16.8577 17.2975 17.3047 17.7318 18.1753 18.6028 19.0561 19.0759 19.5254 19.9859 19.986 20.4502 20.4554 20.9234 20.9385 21.3889 21.8645 21.8841 22.3638 22.4046 22.8886 22.9085 23.3968 23.3971 23.8895 23.8941 24.3908 24.4202 24.9215 24.9462 25.452 25.4773 25.9878 26.0325 26.5479 26.5536 27.053 27.5712 28.1005 28.1041 28.6383 28.6399 29.1636 29.7077 29.7183 30.2465 30.801 30.8303 31.3571 31.9066 32.4598 33.0359 33.0449 33.6269 33.6708 34.2591 34.2765 34.871 34.8978 35.4988 35.5407 36.1484 36.1668 36.7687 37.3894 37.424 38.0518 38.0855 38.7185 39.3606 39.3911 40.0203 40.6699 41.3175 41.9891 42.0003 42.6654 43.3529 43.3591 43.9832 44.6866 44.7561 45.4518 46.1299 46.8456 47.5847 47.5926 48.2876 49.0053 49.7726 49.8197 50.5902 51.3042 52.0951 52.8915 53.6845 54.5168 54.5296 55.3629 56.1957 57.0493 57.8667 58.7102 59.5774 60 8.09232 9.44973 11.0045 12.8239 15.017 17.778 21.5076 27.2785 40.6851 60 8.64062 10.2456 12.1194 14.3708 17.1914 20.9698 26.7126 39.1181 60 8.85715 10.241 11.819 13.6544 15.8479 18.5742 22.1777 27.5067 37.9617 60 9.54033 11.2436 13.1515 15.3201 17.8319 20.8165 24.4941 29.287 36.1813 48.628 60 10.0249 11.8919 14.0203 16.4955 19.4529 23.127 27.9802 35.1476 49.1493 60 9.99631 11.4002 12.9946 14.8394 17.0284 19.72 23.216 28.2127 37.0747 60 10.5797 12.2044 14.0583 16.2169 18.8003 22.0179 26.2857 32.6419 45.4065 60 10.9357 12.5341 14.3415 16.4211 18.8696 21.8467 25.6454 30.8993 39.4743 60 11.227 12.761 14.5454 16.6781 19.3289 22.8331 28.0163 38.1931 60 11.7454 13.4336 15.3788 17.6736 20.472 24.0587 29.0603 37.3853 60 12.2363 13.986 15.9435 18.1651 20.7332 23.7762 27.5107 32.3461 39.2162 51.209 60 12.4778 14.0752 15.9058 18.0495 20.636 23.8973 28.3145 35.1889 51.5751 60 12.9342 14.6119 16.5752 18.9415 21.9206 25.9446 32.1702 46.6261 60 13.2728 14.875 16.7059 18.8419 21.4053 24.6112 28.8934 35.3625 49.0226 60 13.9662 15.8745 18.0251 20.4885 23.3714 26.8468 31.2228 37.1357 46.2905 60 13.9674 15.4663 17.17 19.1433 21.488 24.3771 28.1422 33.5576 43.3325 60 14.2612 15.6014 17.1057 18.82 20.8126 23.1915 26.1436 30.0359 35.7628 46.8194 60 15.2493 17.2941 19.6604 22.4683 25.9215 30.4077 36.8223 48.2127 60 15.896 18.1392 20.682 23.617 27.0878 31.3346 36.8073 44.5144 57.663 60 15.5862 17.0113 18.6082 20.4241 22.5287 25.0316 28.1195 32.152 37.975 48.6038 60 15.9539 17.3305 18.8776 20.6437 22.7011 25.1651 28.2372 32.3195 38.4213 50.8269 60 16.5188 17.9735 19.5782 21.3673 23.3886 25.7118 28.443 31.7567 35.9706 41.7642 51.0886 60 17.026 18.6551 20.5495 22.8127 25.6238 29.3357 34.8138 45.4919 60 17.4474 19.076 21.0014 23.3564 26.3895 30.6565 37.9165 60 17.7481 19.1497 20.7264 22.5283 24.6304 27.1534 30.3089 34.5243 40.8945 54.3595 60 18.2921 19.8547 21.6342 23.7007 26.165 29.2176 33.2305 39.1006 50.2309 60 18.6064 20.0539 21.7366 23.7464 26.2416 29.5341 34.3865 43.8028 60 19.2188 20.8439 22.6691 24.7505 27.1721 30.0671 33.6669 38.4287 45.4814 59.3883 60 19.5972 21.1659 22.9548 25.0358 27.5235 30.6161 34.7061 40.7605 52.6781 60 20.0062 21.5522 23.3456 25.4813 28.1213 31.5799 36.6054 45.9449 60 20.6037 22.3555 24.4193 26.9306 30.1389 34.5863 41.8838 60 20.7555 22.0968 23.6328 25.4298 27.5952 30.3199 33.9973 39.6769 52.7653 60 21.3547 22.7747 24.3898 26.2624 28.4902 31.2407 34.8364 40.0397 49.5946 60 22.1633 24.0482 26.3013 29.1024 32.8066 38.2896 49.0801 60 22.2995 23.7237 25.3197 27.1347 29.2383 31.7401 34.827 38.8588 44.6828 55.3228 60 22.7381 24.1887 25.8741 27.8848 30.3777 33.659 38.4715 47.6694 60 23.4997 25.2567 27.2852 29.6844 32.621 36.4073 41.7447 50.8729 60 23.8407 25.3976 27.1514 29.1592 31.5072 34.3346 37.8891 42.6787 50.0501 60 24.4014 26.0784 28.0139 30.3021 33.1012 36.7066 41.7799 50.417 60 24.9426 26.5994 28.4509 30.5491 32.9701 35.8314 39.3297 43.8324 50.1592 60 25.6684 27.6105 29.8131 32.3572 35.3684 39.0577 43.822 50.5577 60 25.9722 27.6849 29.6792 32.0662 35.0394 38.9839 44.8607 56.6771 60 26.2176 27.6183 29.1969 31.0052 33.1217 35.6733 38.8866 43.2297 49.9577 60 26.8171 28.3405 30.0535 32.0103 34.2919 37.0281 40.4463 45.0032 51.8604 60 27.428 29.0846 30.98 33.1947 35.8586 39.2015 43.6926 50.5601 60 28.284 30.3316 32.6991 35.5052 38.9501 43.4132 49.7614 60 28.4642 30.1608 32.1415 34.521 37.5016 41.4932 47.5568 60 28.9443 30.5662 32.4172 34.5727 37.1531 40.3682 44.6355 50.9989 60 29.4552 31.109 33.0298 35.3208 38.1595 41.893 47.3595 57.7541 60 30.2452 32.0962 34.1489 36.4528 39.078 42.129 45.7709 50.2891 56.2435 60 30.654 32.3678 34.2624 36.3804 38.7817 41.554 44.8331 48.8468 54.0223 60 30.9146 32.344 33.9596 35.8174 38.0031 40.6577 44.039 48.7013 56.2556 60 31.5491 33.0331 34.664 36.4741 38.5077 40.8279 43.5288 46.7606 50.7841 56.1178 60 32.2915 33.9812 35.8645 37.9918 40.4358 43.3075 46.7892 51.2118 57.28 60 32.6736 34.2369 36.0389 38.1662 40.7624 44.0946 48.7528 56.5537 60 33.1997 34.6917 36.4096 38.4341 40.8991 44.0511 48.4275 55.6366 60 33.8492 35.3565 37.0635 39.0313 41.3545 44.19 47.83 52.9197 60 34.7903 36.691 38.8623 41.3942 44.4307 48.2244 53.283 60 34.9692 36.4191 38.0799 40.0239 42.3677 45.3197 49.3103 55.4946 60 35.6847 37.2291 38.9395 40.8557 43.0341 45.5582 48.5587 52.2581 57.0843 60 36.2842 37.8325 39.5996 41.6577 44.122 47.193 51.2708 57.3569 60 37.079 38.8139 40.7973 43.1125 45.8932 49.3751 54.0354 60 37.3289 38.6102 40.0507 41.6956 43.6129 45.9108 48.7789 52.5971 58.3256 60 38.2584 39.8223 41.5702 43.5513 45.8373 48.5398 51.8448 56.1005 60 38.9707 40.6482 42.5526 44.755 47.3662 50.5734 54.7318 60 39.2755 40.6499 42.2574 44.1938 46.6288 49.9121 54.9718 60 40.2724 42.0025 43.9284 46.1004 48.5907 51.5088 55.0328 59.4822 60 40.5886 41.9646 43.5099 45.272 47.3217 49.7718 52.8175 56.8446 60 41.3351 42.8477 44.591 46.6483 49.1581 52.3772 56.872 60 42.1764 43.8707 45.7545 47.8756 50.3023 53.138 56.5488 60 42.7443 44.3246 46.0889 48.0861 50.387 53.1007 56.4087 60 43.4099 45.0129 46.8039 48.8332 51.1737 53.9388 57.3173 60 43.9607 45.4084 47.0638 48.9966 51.3188 54.2279 58.1247 60 44.6047 46.0104 47.5638 49.2996 51.2662 53.5348 56.2152 59.4907 60 45.4445 47.0611 48.8917 51.0017 53.492 56.5305 60 45.8718 47.2042 48.713 50.4525 52.5059 55.0121 58.2292 60 46.9378 48.6582 50.6139 52.8797 55.5726 58.8921 60 47.4101 48.7719 50.2929 52.0155 54.0013 56.3455 59.2066 60 48.1928 49.607 51.2137 53.0737 55.2819 57.9997 60 49.0662 50.5735 52.2597 54.173 56.3844 59.0042 60 49.9989 51.6672 53.5579 55.7396 58.3185 60 50.6174 52.1125 53.8236 55.8237 58.2311 60 51.3723 52.8441 54.4968 56.381 58.5725 60 52.1422 53.5629 55.172 57.0272 59.2179 60 53.1933 54.932 57.0241 59.651 60 53.9026 55.4702 57.2587 59.3406 60 54.8967 56.6324 58.6289 60 55.5229 57.0389 58.7518 60 56.3255 57.8064 59.4733 60 57.2692 58.8888 60 58.0544 59.5711 60 58.7468 60 59.8125 60 60 0.171814 0.468116 0.781504 0.783991 1.09323 1.40934 1.72181 2.04291 2.07728 2.37611 2.66786 2.9817 3.2867 3.59576 3.91759 4.25266 4.25526 4.59254 4.60771 4.93777 5.27953 5.3055 5.64971 5.68278 6.02267 6.33218 6.66623 7.01965 7.03518 7.37996 7.72317 8.05641 8.41368 8.77929 8.80624 9.16761 9.51824 9.87029 10.2464 10.2523 10.6311 10.6455 11.0273 11.0398 11.4245 11.4483 11.8316 12.2151 12.6082 13.0048 13.0166 13.4031 13.7739 14.1635 14.5723 14.6019 15.0141 15.0239 15.4337 15.839 16.2245 16.65 16.6654 17.0945 17.0972 17.5269 17.9381 18.378 18.398 18.8167 19.2521 19.7033 19.7277 20.1328 20.5918 20.6169 21.0323 21.4903 21.9442 22.4197 22.4268 22.9067 22.9165 23.3986 23.863 24.3341 24.8322 24.8438 25.3231 25.8308 25.8362 26.349 26.3621 26.8801 26.8804 27.4036 27.414 27.9282 28.4234 28.9626 28.9664 29.5066 30.0548 30.6113 30.6166 31.1793 31.1823 31.7512 31.7525 32.3278 32.3303 32.9121 32.9234 33.5119 33.5864 34.1825 34.2315 34.8314 35.4317 36.0497 36.0503 36.6757 36.6897 37.3229 37.3805 38.0223 38.0521 38.7024 38.7208 39.3796 39.4317 40.0996 40.1227 40.7997 40.8218 41.4617 42.1565 42.1841 42.8888 42.9038 43.5652 44.2296 44.9597 45.6813 46.4356 46.4843 47.2505 47.283 48.0613 48.0886 48.8607 49.623 50.4375 50.4804 51.3087 51.3562 52.161 53.0039 53.8575 54.7018 55.6011 55.631 56.5467 56.5777 57.5106 57.5353 58.4346 59.3628 60 7.07636 8.6279 10.3863 12.4153 14.8136 17.7464 21.5219 26.8294 35.8425 60 7.51317 9.16385 11.006 13.0897 15.4884 18.3142 21.7532 26.1471 32.2394 42.2409 60 7.99035 9.77646 11.7655 14.0097 16.5842 19.6033 23.2533 27.8693 34.1545 44.05 60 8.09292 9.64152 11.4079 13.4635 15.9218 18.9802 23.0295 29.0379 40.9557 60 8.39664 9.89267 11.6024 13.5971 15.9913 18.986 22.9872 29.0355 41.8345 60 8.9292 10.7435 13.008 16.0226 20.5455 29.8619 60 9.24906 10.8488 12.6536 14.7237 17.151 20.0848 23.7939 28.8412 36.7772 56.6461 60 9.78962 11.6224 13.6942 16.0771 18.881 22.2876 26.6287 32.6194 42.3453 60 9.76587 11.2337 12.9309 14.9426 17.4125 20.6131 25.1668 33.1462 60 10.5438 12.4839 14.709 17.3175 20.4697 24.4536 29.8715 38.379 59.5387 60 10.4743 11.9154 13.5187 15.3253 17.3944 19.8155 22.7333 26.4057 31.3647 39.0309 56.7727 60 11.2514 13.17 15.3091 17.7258 20.5033 23.7684 27.7296 32.7665 39.6901 50.8282 60 11.2058 12.6893 14.3621 16.2794 18.5252 21.2358 24.6554 29.2911 36.5197 53.9067 60 11.5512 12.9971 14.6268 16.4941 18.6802 21.3168 24.6393 29.1346 36.1146 52.582 60 12.1375 13.8178 15.7446 18.0031 20.7315 24.1785 28.863 36.2077 54.3394 60 12.3928 13.9405 15.7124 17.7849 20.281 23.4197 27.6509 34.169 49.028 60 12.7083 14.1534 15.82 17.7888 20.1939 23.2857 27.6201 34.93 60 13.3744 15.058 16.9496 19.1082 21.6214 24.6294 28.3759 33.3456 40.7478 55.6177 60 13.7558 15.4416 17.3417 19.5188 22.0674 25.1412 29.0141 34.2536 42.3864 60 13.936 15.4239 17.087 18.9724 21.1487 23.7223 26.8714 30.9299 36.6462 46.4021 60 14.5091 16.2365 18.2001 20.4749 23.1783 26.5105 30.8554 37.1112 48.4355 60 15.0054 16.8563 19.0127 21.5957 24.8169 29.0991 35.5047 48.5644 60 14.9766 16.3187 17.8373 19.5858 21.6464 24.1555 27.3639 31.8191 39.1593 60 15.5216 17.0294 18.7226 20.6532 22.899 25.5834 28.92 33.3314 39.8579 52.6816 60 15.9488 17.5058 19.2464 21.2198 23.4979 26.1923 29.49 33.7415 39.7338 49.9779 60 16.2768 17.7659 19.4552 21.4071 23.7184 26.5521 30.2154 35.4049 44.3942 60 16.702 18.1812 19.8783 21.8689 24.2761 27.3217 31.4715 38.0154 54.6427 60 17.1702 18.6934 20.4105 22.3783 24.6827 27.4631 30.9688 35.7169 43.106 60 17.8219 19.6723 21.8272 24.4069 27.6208 31.8865 38.247 51.0722 60 18.1742 19.9412 21.9566 24.3021 27.1075 30.5979 35.2201 42.0809 55.7051 60 18.3942 19.9148 21.6426 23.6433 26.0195 28.9454 32.7547 38.2231 48.0397 60 18.8764 20.4407 22.2273 24.3102 26.8075 29.926 34.0808 40.3251 53.2642 60 19.3992 21.0336 22.8835 25.0145 27.5275 30.5903 34.5127 39.9738 49.0297 60 20.0485 21.9219 24.0958 26.6853 29.8878 34.0864 40.196 51.5991 60 20.2118 21.7383 23.4604 25.4359 27.7525 30.5529 34.0941 38.9149 46.5012 60 20.652 22.1815 23.9104 25.8985 28.2375 31.0783 34.6966 39.6856 47.7689 60 20.907 22.2035 23.6484 25.2802 27.1546 29.3565 32.0252 35.4132 40.0573 47.481 60 21.5249 22.9927 24.6385 26.5117 28.6851 31.2738 34.4749 38.6709 44.7744 56.1532 60 22.0395 23.5763 25.2874 27.2173 29.4304 32.0243 35.158 39.1167 44.4962 52.9292 60 22.9031 24.9398 27.2334 29.8581 32.926 36.6177 41.2534 47.4881 57.0446 60 22.9967 24.6676 26.5921 28.8613 31.6264 35.1662 40.0917 48.2472 60 23.3397 24.8383 26.5827 28.6695 31.267 34.7089 39.8243 50.026 60 24.0489 25.8084 27.8689 30.3552 33.4904 37.7374 44.3489 60 24.6559 26.4993 28.5587 30.8914 33.5815 36.7584 40.6381 45.6229 52.6042 60 25.2618 27.2533 29.4743 31.9847 34.8713 38.2672 42.3913 47.6438 54.8845 60 25.1549 26.5302 28.0573 29.7739 31.7337 34.0172 36.7528 40.1651 44.7025 51.4948 60 25.6503 27.025 28.5753 30.3528 32.4358 34.9514 38.1277 42.4405 49.1887 60 26.436 28.1445 30.0975 32.3769 35.1141 38.5403 43.1236 50.0693 60 26.8545 28.4668 30.3034 32.4371 34.9829 38.1388 42.293 48.3854 60 27.2919 28.8171 30.4994 32.375 34.494 36.9292 39.7919 43.2648 47.6804 53.7494 60 27.8375 29.4401 31.3072 33.5437 36.3329 40.0407 45.5877 56.8987 60 28.4839 30.2132 32.1517 34.3574 36.9157 39.9612 43.7242 48.6505 55.7985 60 28.98 30.6872 32.5914 34.7438 37.2193 40.1322 43.6708 48.1798 54.4011 60 29.2957 30.7675 32.4547 34.431 36.8166 39.8265 43.9078 50.2751 60 29.9416 31.619 33.562 35.871 38.7167 42.4263 47.7654 57.4188 60 30.3132 31.7333 33.331 35.1571 37.288 39.8463 43.0476 47.3276 53.8063 60 31.0928 32.8287 34.772 36.9792 39.5334 42.5643 46.2916 51.1341 58.0581 60 31.462 33.032 34.8231 36.9076 39.4012 42.5045 46.6157 52.7228 60 32.2272 34.024 36.031 38.304 40.9243 44.0177 47.7933 52.64 59.4168 60 32.6001 34.2121 36.0615 38.2306 40.8535 44.1719 48.693 55.8208 60 32.9831 34.374 35.9724 37.8513 40.1306 43.0286 47.0113 53.4155 60 34.01 35.8648 37.9267 40.2477 42.9026 46.0036 49.7318 54.4068 60 34.5133 36.3355 38.3912 40.7491 43.5136 46.8548 51.0784 56.8245 60 34.9307 36.5958 38.4785 40.6445 43.1941 46.2935 50.2464 55.7098 60 35.5101 37.1601 39.0509 41.2651 43.9365 47.3044 51.8653 58.9604 60 36.1992 37.9365 39.8665 42.0374 44.518 47.4115 50.8835 55.2246 60 36.6414 38.2126 39.9916 42.0416 44.4604 47.4105 51.1929 56.4701 60 37.3723 39.1145 41.18 43.7166 47.0048 51.6865 59.9058 60 37.8392 39.3651 41.1197 43.1837 45.69 48.8817 53.2803 60 38.3547 39.7074 41.2218 42.9417 44.9319 47.2934 50.1972 53.9692 59.3608 60 38.8432 40.0561 41.4236 42.9908 44.8263 47.0412 49.8344 53.6189 59.5128 60 39.8421 41.5104 43.4069 45.604 48.2153 51.4341 55.6315 60 40.3992 41.9505 43.7095 45.7404 48.1429 51.0841 54.8777 60 41.0107 42.5182 44.237 46.2362 48.6253 51.5943 55.5181 60 41.9519 43.7562 45.799 48.1531 50.9307 54.3185 58.662 60 42.2147 43.5315 45.0018 46.6662 48.5839 50.8461 53.6041 57.1382 60 43.1041 44.6687 46.4595 48.5532 51.0738 54.2408 58.5046 60 44.2558 46.2888 48.5588 51.1284 54.089 57.5812 60 44.5696 46.2223 48.1547 50.4814 53.4053 57.3433 60 45.2344 46.7453 48.4193 50.296 52.4311 54.9075 57.8553 60 46.0219 47.5356 49.2679 51.2928 53.7299 56.7907 60 46.9885 48.6817 50.6084 52.8437 55.5055 58.7959 60 47.8285 49.624 51.664 54.0257 56.8302 60 48.4163 50.0381 51.8914 54.0536 56.6484 59.8936 60 49.0274 50.442 52.0253 53.8231 55.9026 58.3689 60 50.1663 51.9592 53.9752 56.2777 58.9617 60 50.8591 52.4851 54.3574 56.5643 59.252 60 51.7427 53.3624 55.1635 57.192 59.5135 60 52.748 54.5513 56.5716 58.8684 60 53.6285 55.4023 57.3864 59.6376 60 54.491 56.266 58.2863 60 55.3558 57.1097 59.128 60 56.0987 57.7364 59.5854 60 56.9324 58.4668 60 57.7192 59.1141 60 58.5033 59.7743 60 59.3871 60 60 0.152536 0.475728 0.479473 0.801311 1.11191 1.42842 1.7553 2.08564 2.41963 2.42052 2.7562 3.07526 3.41491 3.42709 3.76878 3.76934 4.09048 4.41867 4.7641 5.11364 5.13063 5.48235 5.49261 5.84651 5.87563 6.23183 6.24666 6.60511 6.61053 6.97121 6.98209 7.34506 7.35562 7.7126 8.06878 8.43851 8.45374 8.8259 8.83192 9.19685 9.55186 9.91198 10.2935 10.3107 10.6912 11.0561 11.444 11.8288 12.2117 12.599 12.9843 13.3751 13.7798 13.8187 14.2264 14.2365 14.6405 15.0539 15.0875 15.4852 15.9046 15.9282 16.343 16.7563 17.1849 17.1944 17.6011 18.0281 18.4661 18.5031 18.9268 19.3572 19.8052 19.816 20.2674 20.3365 20.792 20.8154 21.2747 21.2765 21.7314 22.1978 22.2079 22.6782 22.7109 23.1769 23.6548 24.1242 24.6058 25.0956 25.1232 25.6075 26.1057 26.1236 26.5887 27.0953 27.1172 27.6284 27.661 28.1635 28.6585 29.1776 29.7002 30.2182 30.7571 30.7715 31.3155 31.3296 31.8346 32.3885 32.3896 32.9204 33.4631 34.011 34.5859 34.6045 35.1852 35.2056 35.7922 35.8023 36.3949 36.427 36.9887 37.5612 38.1387 38.7296 39.3525 39.3818 40.0117 40.0147 40.6467 41.2903 41.2932 41.9439 41.9663 42.607 43.2629 43.9358 44.0248 44.7065 44.715 45.4048 45.4474 46.0495 46.7551 46.7777 47.4922 47.5231 48.2236 48.9559 48.9749 49.7167 49.7263 50.4776 50.4778 51.2388 51.3403 52.1047 52.881 53.67 54.4736 54.4797 55.2944 55.3126 56.1391 56.1467 56.985 56.9895 57.8317 58.6556 59.5306 59.5546 60 6.74856 8.02361 9.53325 11.3837 13.7752 17.1611 23.0172 60 7.47444 9.13727 11.0502 13.3021 16.0393 19.5305 24.3554 32.2161 56.6847 60 7.71193 9.1974 10.8418 12.6832 14.7753 17.1974 20.0734 23.6134 28.2194 34.8239 46.6425 60 8.23278 9.95474 11.9171 14.198 16.9213 20.3009 24.7571 31.315 43.982 60 8.63 10.4148 12.46 14.8548 17.7437 21.3854 26.3156 33.9809 52.1713 60 8.92631 10.6541 12.6555 15.034 17.9654 21.7872 27.2883 37.2387 60 9.11604 10.6098 12.2876 14.2013 16.4284 19.0918 22.4053 26.7923 33.3015 46.2116 60 9.69583 11.4089 13.313 15.4559 17.9064 20.7677 24.206 28.5142 34.2872 43.0675 60 9.80386 11.2711 12.9633 14.9622 17.4041 20.5431 24.9433 32.3633 60 10.0345 11.3646 12.8987 14.7111 16.9257 19.7733 23.7674 30.5123 60 10.5736 12.0933 13.8754 16.0296 18.7537 22.4617 28.2965 42.9596 60 11.158 12.861 14.779 16.9743 19.5406 22.6297 26.5101 31.7327 39.7494 57.7569 60 11.3762 12.9391 14.7165 16.7764 19.2262 22.2487 26.196 31.8968 42.3055 60 11.7212 13.2369 14.9223 16.8202 18.9922 21.5309 24.5858 28.4218 33.5809 41.4885 59.1434 60 11.9949 13.4029 14.9847 16.7891 18.8893 21.4017 24.5285 28.671 34.8252 47.0831 60 12.3604 13.7338 15.2903 17.0867 19.2105 21.8082 25.154 29.8613 37.8721 60 13.0799 14.8264 16.831 19.1837 22.0311 25.6382 30.5641 38.3711 58.7402 60 13.2466 14.6721 16.2657 18.0725 20.1583 22.6254 25.6452 29.5389 35.028 44.4173 60 13.9167 15.6677 17.6827 20.0556 22.9417 26.626 31.7262 40.0675 60 14.2831 16.0007 17.9907 20.3562 23.2726 27.0768 32.5584 42.503 60 14.7755 16.5419 18.5279 20.7959 23.4396 26.6086 30.5646 35.8326 43.7409 60 15.233 17.0672 19.1593 21.5939 24.5052 28.1269 32.9212 40.0326 54.1233 60 15.5668 17.3196 19.3037 21.5895 24.2856 27.5722 31.7827 37.6485 47.3903 60 15.5275 16.7761 18.1649 19.7292 21.5199 23.614 26.1355 29.3048 33.5744 40.142 55.0219 60 16.2962 17.9175 19.7182 21.7433 24.0564 26.7536 29.9882 34.0288 39.4158 47.5222 60 16.5579 18.0389 19.7347 21.7184 24.108 27.1136 31.1673 37.4183 51.7297 60 16.7962 18.0646 19.4846 21.0975 22.9641 25.1795 27.9046 31.4461 36.5132 45.527 60 17.4805 19.0784 20.8824 22.9537 25.3854 28.3301 32.0636 37.1696 45.2888 60 17.8328 19.3736 21.1111 23.1029 25.4364 28.2537 31.8091 36.6325 44.1653 60 18.1978 19.6606 21.3271 23.2632 25.5732 28.4372 32.2073 37.7373 48.3114 60 18.4573 19.7096 21.1025 22.6716 24.4681 26.5692 29.0996 32.2812 36.5697 43.1741 58.2112 60 19.1596 20.8005 22.723 25.0441 27.9736 31.948 38.1559 53.2069 60 19.7781 21.578 23.6102 25.9434 28.6828 32 36.2059 41.9582 51.1058 60 20.1555 21.9251 23.9669 26.3804 29.3315 33.1305 38.4703 47.5357 60 20.5772 22.3083 24.2626 26.5063 29.1403 32.3297 36.3728 41.9009 50.6862 60 20.7303 22.1434 23.733 25.5496 27.6691 30.213 33.395 37.6463 44.0723 57.6687 60 21.3679 23.0118 24.8663 26.9933 29.4869 32.5003 36.3089 41.489 49.6249 60 21.8109 23.4755 25.3777 27.5965 30.259 33.588 38.033 44.7428 58.8708 60 22.1603 23.6347 25.2885 27.1716 29.3579 31.9643 35.1913 39.4303 45.6217 57.3073 60 22.7748 24.4201 26.282 28.4263 30.9544 34.0341 37.9755 43.4564 52.5179 60 23.2865 25.0406 27.0964 29.5792 32.7147 36.9728 43.6386 59.9712 60 23.7516 25.4215 27.3197 29.519 32.1329 35.3553 39.5578 45.6113 56.5825 60 24.003 25.4919 27.2475 29.3869 32.1258 35.9375 42.2507 60 24.7631 26.4854 28.4202 30.6275 33.1969 36.2708 40.0971 45.1677 52.7049 60 24.9435 26.3659 27.9942 29.8984 32.1914 35.0737 38.9571 44.9324 58.486 60 25.5275 27.0726 28.8302 30.8683 33.2938 36.2893 40.2076 45.8844 56.3435 60 26.2188 27.9687 29.9408 32.1997 34.8432 38.0298 42.0417 47.4619 55.8509 60 26.5904 28.2067 29.9826 31.9532 34.1665 36.6908 39.628 43.1401 47.5083 53.2893 60 27.046 28.6352 30.3883 32.343 34.5518 37.0909 40.0765 43.7 48.3101 54.654 60 27.6725 29.3929 31.3426 33.592 36.2503 39.5001 43.682 49.5561 59.5116 60 28.1615 29.9012 31.8898 34.2109 36.9983 40.4877 45.1561 52.2328 60 28.7036 30.469 32.4416 34.6765 37.2543 40.2996 44.0204 48.8046 55.5142 60 28.9659 30.4251 32.0315 33.8183 35.8311 38.1354 40.8303 44.0758 48.1563 53.6556 60 29.8097 31.5756 33.5679 35.8532 38.5328 41.7717 45.8668 51.44 60 29.9413 31.249 32.7316 34.4433 36.4681 38.9466 42.143 46.6503 54.366 60 30.6611 32.1698 33.8612 35.7857 38.0182 40.676 43.9606 48.2616 54.5056 60 31.0616 32.4792 34.1323 36.1154 38.5938 41.9001 46.8828 57.3096 60 31.6735 33.1222 34.7494 36.6051 38.7644 41.3461 44.5569 48.8056 55.1027 60 32.2772 33.7622 35.4408 37.371 39.6418 42.3999 45.913 50.7572 58.6066 60 32.8704 34.4611 36.3227 38.567 41.3929 45.2115 51.1245 60 33.4972 35.1254 36.958 39.0537 41.5009 44.4418 48.1273 53.067 60 34.1772 35.9626 37.9763 40.2855 42.9918 46.2611 50.3907 56.0014 60 34.8139 36.6843 38.7875 41.1894 43.9894 47.3461 51.5372 57.1198 60 35.3216 37.084 39.055 41.2908 43.8736 46.9314 50.6792 55.5218 60 35.489 36.8128 38.2881 39.954 41.8673 44.1146 46.8374 50.2928 55.026 60 36.5022 38.3089 40.3583 42.7259 45.5288 48.9642 53.4034 59.6864 60 36.8393 38.4011 40.1476 42.1282 44.4157 47.1228 50.4389 54.7199 60 37.3598 38.8362 40.5128 42.4526 44.7542 47.5838 51.2583 56.5081 60 38.1315 39.776 41.6629 43.8759 46.5521 49.9381 54.5517 60 38.5021 39.8827 41.4366 43.2136 45.2887 47.7824 50.9076 55.0963 60 39.2362 40.8033 42.5854 44.6509 47.1075 50.1385 54.0974 59.816 60 39.9081 41.5281 43.3422 45.4032 47.7893 50.6224 54.1096 58.6465 60 40.3413 41.7828 43.4246 45.3314 47.6058 50.424 54.1305 59.5578 60 41.0878 42.676 44.4717 46.5373 48.9685 51.9233 55.6909 60 41.5946 43.0113 44.5964 46.3954 48.4753 50.94 53.9653 57.8836 60 42.4457 44.0854 45.9313 48.0425 50.5084 53.4728 57.1897 60 42.9896 44.5777 46.3728 48.437 50.8656 53.8153 57.5725 60 43.7527 45.4806 47.4619 49.784 52.5889 56.1314 60 44.0961 45.5132 47.1527 49.0977 51.4887 54.5929 59.0262 60 44.767 46.1967 47.8218 49.7044 51.9416 54.6988 58.2935 60 45.8055 47.619 49.6106 51.8191 54.2976 57.1215 60 46.221 47.7706 49.5456 51.6231 54.1278 57.282 60 46.7543 48.0711 49.5411 51.2046 53.1204 55.3791 58.1305 60 47.6359 49.138 50.8116 52.7013 54.8711 57.4188 60 48.4678 50.079 51.8958 53.9786 56.4188 59.365 60 49.0075 50.4847 52.1708 54.1348 56.4868 59.4186 60 49.8866 51.5689 53.4736 55.6687 58.2588 60 50.5638 52.2421 54.1643 56.4135 59.1245 60 51.2657 52.9058 54.746 56.8419 59.2765 60 52.4405 54.5012 56.8013 59.4038 60 53.0753 55.0099 57.1951 59.7058 60 53.3124 54.6607 56.1891 57.9535 60 54.2833 55.8512 57.6475 59.7503 60 55.2933 57.0727 59.1083 60 55.7583 57.1559 58.7208 60 56.7411 58.3425 60 57.6815 59.2915 60 58.2984 59.6511 60 59.4136 60 60 60 0.122337 0.421046 0.728047 1.04