<?xml version="1.0"?><VTKFile type="PolyData" version="0.1" byte_order="LittleEndian">
<PolyData>
<Piece NumberOfLines="11250" NumberOfPoints="11256">
<CellData Scalars=" CellData">
<DataArray type="Float32" Name="time" NumberOfComponents="1" format="ascii" >
0.175673 0.353141 0.530384 0.701278 0.886823 1.08206 1.27139 1.4503 1.64558 1.81612 2.00765 2.18087 2.34343 2.53273 2.7266 2.91552 3.09472 3.27569 3.45983 3.63912 3.83972 4.03207 4.22644 4.40178 4.59859 4.7776 4.95501 5.13535 5.30896 5.5012 5.68462 5.89443 6.08451 6.29696 6.49263 6.6896 6.90109 7.09651 7.30985 7.51665 7.71973 7.92551 8.13145 8.33698 8.55003 8.75136 8.94139 9.1605 9.37093 9.58702 9.78828 9.98589 10.1897 10.3962 10.6055 10.8207 11.0203 11.2332 11.4376 11.6547 11.8838 12.1152 12.3362 12.5643 12.7837 13.0142 13.257 13.4828 13.6996 13.9175 14.1329 14.3622 14.6071 14.8366 15.0509 15.2656 15.4915 15.7222 15.9485 16.18 16.4207 16.661 16.9106 17.1395 17.3717 17.6034 17.8378 18.0756 18.2948 18.5227 18.7688 19.0048 19.2652 19.5259 19.7837 20.0388 20.2876 20.5519 20.8068 21.0724 21.3039 21.5467 21.8243 22.1037 22.3357 22.6049 22.8486 23.1049 23.373 23.6201 23.8714 24.1207 24.3863 24.6523 24.9187 25.1941 25.495 25.7713 26.0307 26.3103 26.574 26.8788 27.1531 27.438 27.7395 28.0303 28.2902 28.5743 28.8677 29.1412 29.4319 29.7298 30.0112 30.3171 30.6182 30.9361 31.2667 31.573 31.8547 32.1664 32.4588 32.7846 33.106 33.4088 33.6909 34.0133 34.3084 34.6353 34.9785 35.2826 35.5987 35.9299 36.2487 36.5789 36.906 37.2436 37.6081 37.9289 38.2804 38.6331 38.9683 39.3076 39.616 39.9701 40.3254 40.6895 41.0577 41.4065 41.7461 42.1372 42.5216 42.9031 43.2672 43.5989 44.0054 44.3758 44.7589 45.1298 45.5436 45.9681 46.3569 46.7243 47.1317 47.5036 47.9002 48.2836 48.6996 49.1116 49.5294 49.9315 50.3533 50.8033 51.2381 51.6453 52.0527 52.4875 52.9149 53.3636 53.8042 54.259 54.7089 55.1214 55.5732 56.0117 56.4606 56.9014 57.3779 57.8477 58.2947 58.739 59.192 59.6851 60 7.73914 9.46633 11.433 13.7165 16.4387 19.8095 24.2378 30.707 42.925 60 7.63362 9.01593 10.5816 12.3869 14.5185 17.1211 20.4638 25.1422 33.0001 60 8.13613 9.84566 11.7616 13.9408 16.4671 19.4727 23.1828 28.0324 35.0479 47.9192 60 8.0732 9.51809 11.159 13.0577 15.3104 18.0801 21.6772 26.8169 35.9268 60 8.33858 9.88587 11.6979 13.8843 16.6412 20.3756 26.1883 40.0553 60 8.69715 10.3496 12.2012 14.3068 16.7473 19.6496 23.2305 27.9071 34.6611 46.9942 60 8.99474 10.7628 12.7711 15.0955 17.8541 21.2476 25.6584 31.9703 43.2043 60 9.01095 10.5658 12.3193 14.3299 16.686 19.5317 23.1252 28.0052 35.6436 54.3493 60 9.43406 11.2127 13.211 15.4907 18.1445 21.3196 25.2722 30.5109 38.3003 53.859 60 9.50284 11.1379 12.9618 15.0238 17.3956 20.187 23.579 27.9032 33.8743 43.5828 60 9.72353 11.4224 13.3993 15.7637 18.7051 22.5996 28.3782 39.8401 60 10.2542 12.273 14.5283 17.083 20.0289 23.5078 27.7562 33.2141 40.8567 53.7098 60 10.2274 12.0489 14.1298 16.5566 19.4676 23.1055 27.9585 35.2711 50.5664 60 10.447 12.2868 14.4015 16.8878 19.9047 23.7419 29.0192 37.5191 60 10.2941 11.7313 13.4051 15.4089 17.9054 21.219 26.1603 36.1267 60 10.6663 12.2314 13.973 15.9361 18.1854 20.8186 23.9944 27.9961 33.4102 41.8155 60 10.8823 12.5152 14.4052 16.6488 19.4095 22.9992 28.1403 37.3103 60 10.916 12.3257 13.9108 15.7211 17.8315 20.3616 23.5209 27.7297 34.0534 47.1458 60 11.5507 13.4477 15.5958 18.0715 20.9932 24.5577 29.1301 35.5152 46.1801 60 11.1708 12.4405 13.909 15.6501 17.7885 20.5612 24.5107 31.4521 60 11.9261 13.7534 15.8009 18.1293 20.8278 24.0368 27.9957 33.1652 40.6294 54.2486 60 11.81 13.2717 14.9107 16.7761 18.9408 21.5192 24.708 28.8887 34.9722 46.3261 60 11.9507 13.3602 14.9885 16.9163 19.2793 22.3329 26.6558 34.1302 60 12.3537 13.9754 15.8157 17.9429 20.4631 23.5553 27.558 33.2418 43.149 60 12.7066 14.5228 16.6541 19.2334 22.5004 26.9607 34.0257 52.4022 60 12.6624 14.1543 15.8405 17.779 20.0592 22.8275 26.3517 31.2062 39.0538 60 12.8463 14.3438 16.0686 18.1023 20.5799 23.7511 28.1621 35.4593 60 13.081 14.6056 16.3464 18.3752 20.8063 23.84 27.8769 33.9284 46.3557 60 13.2635 14.7552 16.4307 18.3416 20.5653 23.2245 26.5323 30.9108 37.4047 50.2661 60 13.4416 14.9258 16.643 18.68 21.184 24.4349 29.077 37.2904 60 13.7894 15.4699 17.4694 19.9382 23.1665 27.8403 36.4343 60 13.8393 15.2732 16.93 18.892 21.2975 24.4074 28.8135 36.448 60 14.1806 15.7186 17.4367 19.3829 21.6271 24.2772 27.5134 31.6706 37.4913 47.2777 60 14.7045 16.6135 18.8279 21.4646 24.7234 28.9917 35.1905 46.6936 60 14.8083 16.5297 18.4471 20.6109 23.0939 26.007 29.5309 33.9916 40.0751 49.6876 60 15.0291 16.7954 18.8285 21.2239 24.1392 27.8642 33.0298 41.5129 60 15.0783 16.5941 18.2861 20.2005 22.4049 25.003 28.1668 32.2131 37.8334 47.0994 60 15.5235 17.3084 19.3289 21.6566 24.4022 27.7491 32.0369 38.0109 47.9336 60 15.4211 16.8081 18.3563 20.108 22.1251 24.5025 27.3976 31.1005 36.2441 44.7258 60 15.7629 17.2685 18.9466 20.8417 23.0185 25.5757 28.6748 32.6092 38.0019 46.6209 60 15.9463 17.4692 19.2682 21.4662 24.2923 28.2555 34.9451 60 16.3183 17.9508 19.8011 21.9365 24.4611 27.549 31.5261 37.1214 46.6428 60 16.5587 18.1767 19.9773 22.0072 24.3333 27.0571 30.3432 34.4859 40.0952 48.8192 60 16.9777 18.8284 20.925 23.343 26.1991 29.6881 34.1726 40.4581 51.0534 60 17.0858 18.7928 20.7324 22.9783 25.6455 28.9296 33.2044 39.3392 50.3432 60 17.1665 18.7371 20.5631 22.7441 25.4523 29.0264 34.2958 44.533 60 17.3387 18.8291 20.5148 22.4549 24.74 27.52 31.0702 35.9881 44.0443 60 17.6686 19.2252 20.9503 22.8848 25.0865 27.6414 30.6849 34.449 39.3845 46.5677 59.9819 60 17.8374 19.3157 20.9502 22.778 24.8508 27.2447 30.0777 33.5481 38.0284 44.3592 55.2532 60 18.2321 19.9243 21.8653 24.1412 26.8922 30.3705 35.1042 42.5494 60 18.4362 20.0557 21.8489 23.8576 26.1407 28.7854 31.9281 35.8008 40.8487 48.112 60 18.3941 19.7707 21.366 23.2626 25.6016 28.6542 33.0569 41.0659 60 18.815 20.3734 22.1289 24.1386 26.4889 29.3191 32.877 37.6712 45.0495 60 19.0496 20.6177 22.3969 24.453 26.8885 29.8756 33.7397 39.2203 48.7441 60 19.7494 21.8199 24.1477 26.8056 29.9032 33.6153 38.2475 44.412 53.6541 60 19.3266 20.6668 22.1878 23.9459 26.0289 28.5849 31.8938 36.5933 44.7889 60 19.6383 21.0916 22.767 24.7447 27.1582 30.2559 34.5857 41.8352 60 20.2689 22.176 24.3944 27.0459 30.3417 34.6991 41.1454 53.8099 60 20.291 21.9204 23.7596 25.8707 28.3482 31.3465 35.1447 40.331 48.5489 60 20.732 22.5948 24.7214 27.1992 30.1675 33.8697 38.792 46.1585 60 20.7802 22.3795 24.1699 26.2034 28.5565 31.3486 34.7822 39.2428 45.6198 56.9392 60 20.7795 22.0914 23.5661 25.25 27.2122 29.5634 32.4969 36.3996 42.247 54.2349 60 21.1608 22.6003 24.1955 25.9842 28.02 30.3822 33.1959 36.6753 41.2366 47.8726 60 21.4526 22.9734 24.7248 26.7897 29.3053 32.5248 37.002 44.4053 60 21.9247 23.6884 25.7069 28.0665 30.9064 34.4733 39.2725 46.6351 60 21.9263 23.3761 25.0067 26.8697 29.0425 31.6491 34.907 39.2542 45.8079 59.5407 60 22.7192 24.7475 27.036 29.6613 32.74 36.462 41.1693 47.5788 57.6707 60 22.5033 24.0209 25.7567 27.7844 30.2222 33.2794 37.3817 43.6394 57.3464 60 22.8462 24.4539 26.2677 28.3485 30.7886 33.7384 37.4688 42.5478 50.5428 60 23.023 24.5562 26.2942 28.3 30.6716 33.5729 37.3107 42.5715 51.5342 60 23.1747 24.5954 26.1955 28.027 30.1683 32.746 35.9847 40.3448 47.0422 60 23.6691 25.3747 27.3345 29.638 32.4317 35.9824 40.8593 48.6905 60 23.7219 25.1522 26.7691 28.6285 30.8164 33.4739 36.8598 41.5304 49.1054 60 24.1229 25.7073 27.4975 29.555 31.9741 34.9093 38.6424 43.7761 52.0428 60 24.3356 25.9184 27.7592 29.9587 32.6915 36.3017 41.6348 52.0616 60 24.6554 26.2605 28.0391 30.0335 32.3034 34.9372 38.0744 41.9538 47.0392 54.4372 60 24.7852 26.2781 27.9741 29.9373 32.2679 35.1359 38.8656 44.2086 53.7457 60 25.0019 26.4323 28.0445 29.8914 32.0534 34.6605 37.9447 42.3859 49.274 60 25.2474 26.6697 28.2837 30.1492 32.3595 35.0714 38.5818 43.5663 52.2538 60 25.6742 27.2651 29.0541 31.0976 33.4801 36.3371 39.9056 44.6619 51.8157 60 25.7926 27.2108 28.8094 30.6411 32.7856 35.3723 38.6321 43.0435 49.896 60 26.0867 27.5207 29.1314 30.9683 33.1057 35.6614 38.8399 43.0462 49.2812 60 26.4317 27.9263 29.5999 31.5011 33.7018 36.3143 39.5291 43.7098 49.6987 60 26.8296 28.4724 30.3109 32.3981 34.812 37.6743 41.1902 45.7495 52.246 60 26.8243 28.1777 29.7097 31.4747 33.5565 36.0942 39.345 43.8738 51.394 60 27.3646 29.0168 30.8779 33.0087 35.5006 38.5016 42.2745 47.3591 55.187 60 27.3794 28.7521 30.3047 32.0918 34.1968 36.7581 40.0295 44.5627 51.9946 60 27.8906 29.5302 31.3886 33.5334 36.0692 39.171 43.1663 48.788 58.3577 60 28.1015 29.667 31.4039 33.3544 35.5785 38.1657 41.2581 45.102 50.1841 57.7033 60 28.503 30.2476 32.2211 34.4929 37.1693 40.4265 44.5885 50.3599 59.8371 60 28.7538 30.4729 32.4349 34.72 37.4557 40.8649 45.3913 52.145 60 28.7735 30.1923 31.7892 33.6155 35.7484 38.3118 41.5248 45.8325 52.3915 60 29.4814 31.3607 33.4878 35.9383 38.8284 42.351 46.863 53.1467 60 29.5643 31.2018 33.0591 35.2047 37.7448 40.8578 44.8799 50.5715 60 29.885 31.5564 33.4657 35.6923 38.3631 41.7005 46.152 52.8577 60 30.1427 31.7799 33.663 35.8794 38.573 42.0073 46.7505 54.4667 60 30.3657 31.8916 33.5941 35.5198 37.736 40.3464 43.522 47.5772 53.1943 60 30.9068 32.6942 34.693 36.9601 39.5788 42.6784 46.4763 51.3815 58.3182 60 31.2161 33.0841 35.2726 37.9146 41.2487 45.7712 52.8325 60 31.5337 33.3502 35.3884 37.7099 40.4064 43.6231 47.6094 52.8538 60 31.5637 33.1177 34.8654 36.8622 39.191 41.9846 45.4761 50.1346 57.156 60 31.7369 33.1713 34.7874 36.638 38.8029 41.4112 44.6924 49.1193 55.9504 60 32.2263 33.9155 35.9283 38.4188 41.6868 46.45 55.3837 60 32.7825 34.6626 36.788 39.2323 42.1083 45.602 50.0535 56.1946 60 32.695 34.1919 35.9078 37.9179 40.3446 43.4067 47.5598 54.0427 60 33.0668 34.6073 36.3428 38.3301 40.6547 43.4551 46.9775 51.7286 59.0558 60 33.3048 34.7983 36.4884 38.4346 40.7286 43.5227 47.097 52.0641 60 33.5803 35.0311 36.6508 38.4841 40.5958 43.086 46.1206 50.0064 55.4152 60 33.9886 35.5587 37.3329 39.3719 41.7693 44.6782 48.3778 53.4656 60 34.5721 36.4694 38.6121 41.0735 43.9649 47.4692 51.9181 58.0167 60 34.5711 36.1501 37.9496 40.0413 42.5386 45.6379 49.7247 55.7392 60 34.8993 36.5134 38.3457 40.4643 42.9755 46.0589 50.0545 55.7401 60 35.019 36.4009 37.9455 39.6959 41.7158 44.1034 47.0231 50.7822 56.067 60 35.2963 36.6327 38.1172 39.7868 41.6941 43.9185 46.5866 49.921 54.3689 60 35.6731 37.1215 38.7916 40.7638 43.1721 46.2655 50.5964 57.8759 60 36.0319 37.4975 39.1554 41.0635 43.3111 46.0457 49.5385 54.3783 60 36.5121 38.1158 39.9267 42.0063 44.4484 47.4068 51.1598 56.2975 60 36.9979 38.83 40.9745 43.5605 46.818 51.2229 58.0538 60 37.1609 38.7881 40.6317 42.7582 45.2705 48.3404 52.288 57.8254 60 37.3591 38.8367 40.5081 42.4318 44.6978 47.4548 50.9762 55.8556 60 37.6229 39.0578 40.6961 42.605 44.8921 47.7451 51.5395 57.2215 60 38.1237 39.6833 41.418 43.372 45.6089 48.2249 51.375 55.3348 60 38.4571 40.0534 41.8674 43.968 46.463 49.5356 53.5365 59.2818 60 38.9511 40.7069 42.68 44.932 47.5546 50.6946 54.6075 59.8024 60 39.3433 41.1707 43.2727 45.7469 48.7538 52.5878 57.884 60 39.4502 40.9814 42.704 44.6729 46.9705 49.729 53.1808 57.7959 60 39.8043 41.3851 43.1629 45.1938 47.5622 50.4028 53.9521 58.6858 60 40.2711 41.9813 43.8856 46.0336 48.4972 51.3853 54.8751 59.2853 60 40.7755 42.7387 45.0487 47.8547 51.4299 56.362 60 40.8735 42.5729 44.5698 46.9906 50.0654 54.2836 60 40.935 42.2478 43.7056 45.3443 47.2152 49.3954 52.0076 55.2665 59.6014 60 41.3614 42.7888 44.4271 46.3495 48.6757 51.6215 55.642 60 41.7982 43.3135 45.0161 46.9586 49.2201 51.9263 55.2959 59.7637 60 42.1838 43.7442 45.5309 47.6208 50.1385 53.305 57.5757 60 42.5786 44.1542 45.9246 47.945 50.2978 53.1143 56.6234 60 42.8763 44.3588 46.0241 47.9236 50.1343 52.7783 56.0682 60 43.3399 44.9228 46.7389 48.869 51.4448 54.7036 59.1434 60 43.714 45.2774 47.0333 49.0359 51.366 54.1522 57.6174 60 43.9097 45.3229 46.9224 48.7646 50.9369 53.5837 56.972 60 44.4139 45.9724 47.7379 49.7742 52.1793 55.1174 58.8937 60 44.8942 46.5914 48.508 50.7092 53.2947 56.4276 60 45.2922 47.0121 48.9795 51.2776 54.0408 57.5063 60 45.4941 46.9977 48.7079 50.6907 53.0496 55.9618 59.7687 60 45.9703 47.6053 49.4768 51.6649 54.2991 57.609 60 46.3082 47.98 49.9576 52.3786 55.5009 59.9045 60 46.7285 48.3427 50.1212 52.1012 54.3345 56.8952 59.8964 60 46.8591 48.2686 49.8838 51.7752 54.0571 56.9339 60 47.3922 48.9615 50.7694 52.9014 55.4999 58.8277 60 47.7703 49.2715 50.9664 52.9127 55.1982 57.9663 60 48.3365 50.0586 52.0067 54.2493 56.8914 60 48.5079 50.0293 51.8076 53.9476 56.6351 60 48.9138 50.4058 52.1029 54.0706 56.4119 59.3026 60 49.326 50.8319 52.5287 54.4717 56.7448 59.4835 60 50.0338 51.8688 53.9239 56.2589 58.9624 60 50.0847 51.5379 53.1729 55.042 57.2235 59.843 60 50.8859 52.786 54.9474 57.454 60 50.9435 52.3818 53.9838 55.7917 57.8661 60 51.1504 52.4037 53.8306 55.4873 57.4619 59.9065 60 51.5846 52.8175 54.1906 55.7399 57.5174 59.6021 60 52.2645 53.7965 55.5441 57.5783 60 52.7228 54.2925 56.0658 58.1035 60 53.3994 55.2499 57.3326 59.7141 60 53.883 55.8602 58.1047 60 54.0867 55.836 57.8755 60 54.621 56.4524 58.5507 60 54.7664 56.2293 57.8741 59.7526 60 55.1995 56.6251 58.2153 60 55.481 56.7439 58.162 59.7789 60 56.7226 58.9194 60 56.6178 58.126 59.8161 60 57.337 59.1437 60 57.4573 58.8285 60 57.9652 59.4057 60 58.3255 59.713 60 59.3213 60 59.652 60 59.8975 60 60 60 0.144398 0.303254 0.45766 0.617754 0.778409 0.936202 1.08996 1.24629 1.39372 1.55038 1.71357 1.86478 2.02652 2.1777 2.34039 2.48584 2.63937 2.809 2.95884 3.10867 3.27425 3.44124 3.60504 3.7708 3.93711 4.11759 4.26438 4.42129 4.58576 4.75695 4.91885 5.07455 5.25207 5.4184 5.60281 5.76733 5.92987 6.08887 6.25822 6.42334 6.60198 6.76409 6.94356 7.12123 7.28457 7.46015 7.63452 7.82271 7.99259 8.16856 8.34605 8.52834 8.68232 8.8584 9.05908 9.23883 9.42492 9.60791 9.78331 9.98082 10.1763 10.373 10.5669 10.7538 10.9435 11.1246 11.3235 11.5188 11.7036 11.8841 12.0756 12.2547 12.4478 12.6245 12.8073 13.0006 13.21 13.4104 13.6087 13.8111 14.0146 14.213 14.4218 14.6038 14.8016 15.0059 15.2187 15.4106 15.6071 15.8069 15.9978 16.1886 16.4038 16.6074 16.833 17.0306 17.2503 17.4583 17.6698 17.8987 18.1238 18.321 18.5387 18.7531 18.9965 19.235 19.4604 19.6902 19.9252 20.1421 20.357 20.5954 20.8155 21.0466 21.2667 21.5098 21.7826 22.0085 22.2327 22.4498 22.6866 22.9123 23.1471 23.3881 23.6341 23.8816 24.1258 24.3935 24.6428 24.9038 25.1464 25.4091 25.6527 25.9088 26.1878 26.4546 26.6878 26.9171 27.1702 27.4279 27.7041 27.9737 28.2232 28.4846 28.7584 28.9949 29.3012 29.5665 29.8416 30.12 30.413 30.7123 30.9607 31.2251 31.52 31.8063 32.1141 32.4081 32.6911 32.9795 33.2716 33.5632 33.8584 34.1747 34.4887 34.8054 35.1049 35.4283 35.7567 36.0703 36.3597 36.6924 37.0072 37.3091 37.6287 37.9598 38.3203 38.6591 38.9439 39.2638 39.5792 39.9255 40.2414 40.5934 40.9213 41.2769 41.6318 41.951 42.3441 42.6882 43.0468 43.4164 43.7626 44.128 44.524 44.8816 45.2342 45.6061 45.9671 46.3621 46.7286 47.1057 47.5015 47.8846 48.2747 48.6715 49.1129 49.5145 49.9255 50.3358 50.775 51.1796 51.5889 52.0526 52.4416 52.9094 53.3349 53.7739 54.2251 54.7005 55.1485 55.6185 56.1047 56.5635 57.0758 57.5955 58.0358 58.4861 58.9891 59.5183 60 6.98695 8.26644 9.7242 11.4181 13.4396 15.9467 19.249 24.0982 33.4031 60 7.5321 9.21883 11.1335 13.3476 15.9723 19.1955 23.3733 29.3208 39.7574 60 7.71073 9.42532 11.4037 13.7422 16.6017 20.2827 25.4568 34.2412 60 7.77103 9.3474 11.1616 13.2983 15.8975 19.2166 23.8133 31.3398 55.7275 60 8.26121 10.1291 12.1962 14.51 17.1375 20.1775 23.7838 28.217 33.9727 42.1923 56.7383 60 8.18568 9.89329 11.9677 14.6111 18.2582 24.177 42.071 60 8.28026 9.78377 11.4449 13.3006 15.4026 17.8265 20.6889 24.1843 28.6747 34.9622 45.5347 60 8.9168 10.9224 13.1348 15.6015 18.3886 21.5921 25.3586 29.929 35.7423 43.7377 56.6169 60 8.48607 9.85898 11.4 13.156 15.197 17.6337 20.6573 24.6435 30.5075 41.822 60 8.79754 10.3807 12.2495 14.5301 17.4571 21.5481 28.3966 56.6332 60 9.06309 10.6811 12.5025 14.586 17.0197 19.9458 23.6152 28.5393 36.051 52.5082 60 9.21715 10.8031 12.5685 14.5595 16.842 19.5165 22.746 26.8228 32.3561 41.0067 60 9.33748 10.8484 12.5209 14.3935 16.5209 18.9834 21.9066 25.5036 30.1811 36.8811 48.8361 60 9.67133 11.39 13.3318 15.5633 18.1864 21.3684 25.4138 30.9732 39.9112 60 9.60259 11.0243 12.6082 14.3959 16.4477 18.8557 21.7698 25.461 30.5007 38.4842 59.261 60 9.91758 11.5074 13.2804 15.2843 17.5885 20.2991 23.5908 27.7827 33.5604 42.9138 60 10.1386 11.8048 13.6961 15.8828 18.4746 21.6569 25.7801 31.6462 41.9224 60 10.2517 11.8529 13.7039 15.8972 18.5889 22.0742 27.0261 35.6708 60 10.2744 11.691 13.3014 15.167 17.3841 20.1167 23.6798 28.8095 38.0932 60 10.4764 11.9065 13.4993 15.2965 17.3585 19.7768 22.7012 26.4008 31.4411 39.3867 59.5434 60 10.8756 12.594 14.5878 16.9621 19.8976 23.7443 29.3362 39.7421 60 10.9036 12.4304 14.1881 16.2593 18.7807 22.0038 26.4766 33.8349 58.6865 60 10.9917 12.3975 13.9992 15.8604 18.0817 20.8366 24.4656 29.7953 40.0268 60 11.3446 12.9954 14.9707 17.4296 20.6888 25.5353 35.2184 60 11.4654 13.0118 14.8196 16.9957 19.7295 23.409 29.0584 41.7587 60 11.653 13.1243 14.7638 16.6147 18.7399 21.235 24.2565 28.0877 33.3277 41.6616 60 12.1924 14.1043 16.2755 18.7877 21.7682 25.4327 30.1913 36.99 49.0354 60 11.9731 13.4208 15.0372 16.8669 18.9748 21.4608 24.4912 28.373 33.7799 42.7552 60 12.4134 14.155 16.1179 18.3668 20.9994 24.1742 28.1738 33.5834 41.9762 60 12.2991 13.7036 15.295 17.1308 19.3 21.9509 25.3608 30.1464 38.2403 60 12.7283 14.3971 16.2737 18.4173 20.9166 23.9136 27.6571 32.6469 40.1527 55.7556 60 12.6056 13.9215 15.3733 16.9923 18.822 20.9257 23.4001 26.4044 30.2293 35.4984 44.0181 60 12.8936 14.3399 15.9857 17.895 20.1684 22.9784 26.6592 32.0061 41.9343 60 13.6847 15.8257 18.2905 21.195 24.7306 29.2502 35.5219 45.839 60 13.4286 15.0268 16.8431 18.9464 21.4449 24.5221 28.5298 34.2871 44.6427 60 13.7763 15.5874 17.6952 20.2162 23.3531 27.5073 33.6744 45.927 60 13.8265 15.45 17.2892 19.41 21.9147 24.9738 28.9044 34.4101 43.6761 60 13.8971 15.3845 17.0513 18.9465 21.1429 23.7547 26.9764 31.1827 37.2542 48.3224 60 14.214 15.8458 17.6833 19.786 22.2438 25.2012 28.9147 33.9087 41.5621 58.6398 60 14.4183 16.0817 17.974 20.1685 22.7805 26.0071 30.2293 36.3505 47.6514 60 14.2479 15.4786 16.8593 18.432 20.2586 22.4373 25.137 28.6878 33.8872 43.7768 60 14.5532 15.9191 17.4535 19.204 21.2415 23.679 26.7129 30.7328 36.7067 48.6167 60 15.1901 17.0289 19.0851 21.4169 24.11 27.297 31.2008 36.2403 43.3605 55.6095 60 15.1789 16.7836 18.5807 20.6227 22.9873 25.7957 29.2539 33.7562 40.2194 51.8226 60 15.2201 16.7043 18.4259 20.4756 23.0088 26.3263 31.1431 40.0754 60 15.6081 17.2663 19.1325 21.2665 23.7582 26.7523 30.5037 35.5302 43.1739 59.7164 60 15.8458 17.5629 19.5187 21.7901 24.499 27.8554 32.2691 38.7299 51.0049 60 16.3141 18.3083 20.569 23.1787 26.265 30.042 34.9104 41.7698 53.4861 60 16.4764 18.4606 20.7482 23.4488 26.7453 30.9773 36.8959 46.8179 60 16.672 18.6095 20.7849 23.2649 26.1491 29.5952 33.8766 39.532 47.8848 60 16.2749 17.5458 18.9715 20.5952 22.4807 24.7292 27.5143 31.1754 36.5305 46.682 60 16.7352 18.2988 20.0726 22.1222 24.5492 27.5249 31.3719 36.8222 46.2653 60 17.1909 19.102 21.3228 23.9732 27.2606 31.5911 37.952 50.1668 60 17.0973 18.6496 20.4203 22.4809 24.9453 28.0115 32.0714 38.0963 50.0529 60 17.3082 18.8122 20.4897 22.3862 24.5676 27.1348 30.2543 34.2306 39.7205 48.6431 60 17.7408 19.5009 21.4727 23.7143 26.3114 29.3984 33.2042 38.1683 45.3206 58.2924 60 17.9324 19.6775 21.6456 23.9023 26.547 29.7415 33.7759 39.2557 47.8369 60 17.9222 19.4262 21.1282 23.0887 25.4003 28.217 31.8229 36.84 45.1466 60 18.0552 19.4482 20.9782 22.675 24.5797 26.7502 29.2731 32.2853 36.0234 40.9523 48.2055 60 18.7961 20.8099 23.1075 25.7822 28.9825 32.967 38.2491 46.106 60 18.4812 19.8779 21.4559 23.2693 25.4011 27.9871 31.275 35.7936 43.0597 60 18.6804 20.0476 21.5935 23.3719 25.4654 28.01 31.2554 35.7404 43.0463 60 18.9409 20.3367 21.8968 23.6653 25.7062 28.1194 31.0713 34.874 40.2257 49.3403 60 19.1735 20.5885 22.1701 23.963 26.0324 28.4793 31.4732 35.3309 40.7626 50.0246 60 20.152 22.4081 24.9318 27.7949 31.1034 35.0216 39.8265 46.04 54.8477 60 19.6831 21.1975 22.9027 24.8538 27.1335 29.8758 33.3173 37.9412 45.0134 60 19.9942 21.6281 23.51 25.7289 28.4323 31.8928 36.7065 44.6718 60 19.9931 21.3715 22.9605 24.8363 27.1257 30.0644 34.1729 41.0555 60 20.2791 21.6997 23.281 25.064 27.1079 29.502 32.3921 36.0387 40.9836 48.6993 60 20.828 22.6634 24.7641 27.2197 30.1752 33.8874 38.8823 46.546 60 20.6193 21.9512 23.4481 25.1568 27.1473 29.5312 32.5032 36.4521 42.3535 54.3446 60 21.1151 22.8096 24.7771 27.1228 30.0273 33.8434 39.4191 49.954 60 21.5041 23.3313 25.373 27.6863 30.3548 33.5078 37.361 42.3168 49.2712 60 21.4705 23.0478 24.8295 26.8763 29.2814 32.1973 35.901 40.9827 49.1228 60 21.5446 22.9769 24.6071 26.4988 28.7522 31.5389 35.1927 40.5097 50.4348 60 21.8406 23.336 25.0133 26.923 29.1401 31.7827 35.0542 39.3502 45.6214 57.4374 60 22.1465 23.7891 25.7532 28.1956 31.4271 36.2155 45.6703 60 22.4484 24.0778 25.8886 27.9263 30.2563 32.9764 36.2442 40.3372 45.8185 54.1442 60 22.8331 24.6595 26.728 29.1127 31.928 35.3643 39.7758 45.9449 56.2859 60 22.691 24.1138 25.7516 27.6812 30.0298 33.0311 37.1938 44.0328 60 22.9586 24.3989 26.0318 27.9168 30.1462 32.8747 36.3923 41.3497 49.8228 60 23.3409 24.9443 26.7533 28.8287 31.2625 34.2051 37.9269 42.9953 50.9779 60 23.6798 25.4019 27.363 29.6402 32.3553 35.7179 40.1368 46.5962 58.8181 60 23.9301 25.6721 27.6235 29.8416 32.4108 35.4639 39.2262 44.1302 51.1866 60 23.7945 25.1359 26.6457 28.3725 30.389 32.8125 35.8502 39.9228 46.1235 59.6068 60 24.1216 25.5473 27.1323 28.9168 30.9585 33.344 36.2133 39.8136 44.6496 52.0423 60 24.4065 25.8903 27.5658 29.4898 31.7491 34.4861 37.9579 42.7105 50.2834 60 24.84 26.5661 28.5285 30.8022 33.5049 36.8371 41.184 47.4481 58.8154 60 24.9216 26.4741 28.2283 30.2446 32.6152 35.492 39.1513 44.1848 52.2948 60 25.6694 27.8381 30.3535 33.3476 37.0467 41.8883 48.9107 60 25.4607 27.1046 28.9628 31.0997 33.6141 36.6683 40.5594 45.9267 54.6312 60 25.4753 26.8958 28.5158 30.4008 32.6546 35.4576 39.1668 44.664 55.5276 60 25.6357 26.9621 28.4885 30.2862 32.473 35.265 39.1313 45.4591 60 26.2022 27.8827 29.7931 32.0062 34.6364 37.8784 42.1057 48.1927 59.213 60 26.2525 27.723 29.4409 31.5068 34.0982 37.5774 42.8904 54.5777 60 26.8471 28.6774 30.7357 33.0871 35.8289 39.1174 43.2262 48.7054 56.9552 60 27.2656 29.3241 31.7141 34.5635 38.0918 42.7275 49.5008 60 27.0537 28.5584 30.2566 32.2055 34.4922 37.2588 40.7617 45.541 53.0998 60 27.7229 29.7417 32.0892 34.8939 38.378 42.9792 49.772 60 27.969 30.0186 32.4982 35.6374 39.9196 46.6894 60 27.7906 29.2817 31.0248 33.1228 35.7582 39.3047 44.7474 56.9612 60 28.1183 29.6848 31.4665 33.5322 35.9898 39.0238 42.99 48.7289 59.2651 60 28.4104 30.0003 31.7865 33.8247 36.1977 39.0375 42.5739 47.2639 54.2458 60 28.513 29.9831 31.7071 33.7915 36.4279 40.0184 45.6739 59.9611 60 28.7633 30.1518 31.7239 33.5354 35.6728 38.2795 41.6213 46.2831 54.05 60 29.3305 31.0319 32.9511 35.152 37.7319 40.8491 44.7877 50.1418 58.5413 60 29.265 30.6194 32.1819 34.0285 36.2858 39.1903 43.2694 50.1796 60 29.9566 31.7605 33.8049 36.1639 38.9523 42.362 46.7516 52.9221 60 30.1538 31.8453 33.7331 35.8692 38.3288 41.2276 44.7573 49.2714 55.5404 60 30.1036 31.451 32.9498 34.6383 36.5715 38.8325 41.5559 44.9806 49.5978 56.7119 60 30.6375 32.3089 34.1927 36.351 38.8775 41.9244 45.763 50.9549 59.0106 60 30.8224 32.3905 34.1677 36.2184 38.6424 41.6067 45.4231 50.7886 59.9028 60 31.154 32.7982 34.6598 36.8053 39.337 42.4253 46.3858 51.914 60 31.4571 33.1227 34.9956 37.1347 39.6284 42.6183 46.3521 51.327 58.8041 60 31.8518 33.6921 35.8028 38.2774 41.2679 45.0475 50.1883 58.2628 60 31.796 33.2393 34.8853 36.8004 39.0901 41.9376 45.7051 51.2877 60 32.3088 34.0644 36.2406 39.1049 43.3049 51.3265 60 32.5194 34.0859 35.8454 37.8524 40.1882 42.9818 46.4576 51.0602 57.8917 60 32.7788 34.3357 36.0857 38.0836 40.4113 43.1997 46.6774 51.3009 58.2192 60 33.0294 34.614 36.4528 38.6431 41.3518 44.9032 50.0709 59.7161 60 33.3146 34.8703 36.6316 38.6612 41.0557 43.9758 47.719 52.9398 60 33.6429 35.2546 37.0684 39.1423 41.5636 44.4725 48.1163 52.9965 60 33.8603 35.4236 37.2175 39.3222 41.8683 45.0915 49.4877 56.436 60 34.367 36.1508 38.1635 40.4727 43.1811 46.456 50.599 56.243 60 34.4527 36.017 37.8041 39.8883 42.3885 45.5132 49.682 55.9649 60 34.8693 36.5577 38.4745 40.6911 43.3193 46.5473 50.7327 56.6944 60 35.137 36.8013 38.7 40.9101 43.5543 46.8457 51.2075 57.6912 60 35.3201 36.84 38.5941 40.668 43.2049 46.4725 51.0705 58.898 60 35.7991 37.4786 39.3576 41.4902 43.9555 46.8769 50.4623 55.1055 60 36.0217 37.5911 39.3382 41.3086 43.5676 46.2147 49.4114 53.4475 58.9269 60 36.2938 37.8335 39.5404 41.4553 43.6359 46.1682 49.1876 52.9276 57.8432 60 36.8013 38.5857 40.6176 42.9767 45.7889 49.2708 53.8443 60 36.7725 38.1926 39.8097 41.6873 43.9258 46.6977 50.3397 55.6613 60 37.4736 39.3377 41.471 43.9642 46.9643 50.731 55.7961 60 37.4103 38.8563 40.5674 42.6634 45.3691 49.1915 55.7656 60 37.9088 39.5001 41.3016 43.3772 45.8257 48.8111 52.6369 57.97 60 38.283 39.9735 41.8861 44.0881 46.683 49.842 53.8808 59.4866 60 38.5932 40.3106 42.2444 44.4572 47.043 50.1539 54.0589 59.3074 60 38.8276 40.4693 42.3292 44.4743 47.0082 50.1038 54.0832 59.6619 60 39.2386 41.0011 43.0187 45.378 48.219 51.7901 56.6012 60 39.4603 41.0654 42.8664 44.9181 47.3016 50.1455 53.6711 58.3118 60 39.6389 41.0917 42.7463 44.6678 46.9593 49.7982 53.5306 58.9919 60 40.0104 41.53 43.2517 45.2379 47.5847 50.4528 54.1421 59.3198 60 40.466 42.15 44.0801 46.3409 49.0696 52.5117 57.1776 60 40.943 42.7282 44.6967 46.8903 49.3674 52.2122 55.5533 59.6012 60 41.0268 42.6119 44.3972 46.441 48.8308 51.7083 55.3246 60 41.2715 42.7057 44.3184 46.1603 48.3076 50.8819 54.0966 58.3793 60 41.6588 43.1779 44.9136 46.9382 49.3675 52.4047 56.4592 60 42.2159 44.023 46.1578 48.7658 52.1184 56.8187 60 42.3572 43.9016 45.6837 47.7899 50.3653 53.6803 58.3391 60 42.6173 44.0161 45.5898 47.3885 49.4872 52.0068 55.1591 59.3728 60 43.1525 44.7264 46.4887 48.4908 50.8083 53.5595 56.9449 60 43.5425 45.2272 47.1441 49.3676 52.015 55.2868 59.5713 60 43.7226 45.2319 46.9386 48.9022 51.214 54.0246 57.6102 60 44.0544 45.5236 47.1853 49.0978 51.3506 54.0914 57.5919 60 44.5019 46.0883 47.9083 50.0426 52.6231 55.887 60 44.8744 46.4126 48.1299 50.0734 52.3119 54.9514 58.1676 60 45.3319 47.0262 49.0044 51.381 54.3583 58.3465 60 45.4863 46.8929 48.453 50.2044 52.2006 54.5212 57.2925 60 45.8757 47.3363 48.9913 50.9003 53.1559 55.9123 59.4573 60 46.5234 48.3094 50.3521 52.7376 55.6047 59.1985 60 46.615 48.0708 49.7082 51.5789 53.7606 56.3778 59.649 60 47.0623 48.64 50.4732 52.6607 55.3732 58.9449 60 47.5677 49.2173 51.065 53.1652 55.5977 58.4879 60 47.858 49.3981 51.1372 53.1346 55.4803 58.3223 60 48.0806 49.4581 51.0704 53.0143 55.4625 58.7721 60 48.6009 50.108 51.8269 53.827 56.2187 59.1937 60 49.1557 50.8215 52.7191 54.9236 57.554 60 49.5741 51.2502 53.1763 55.4404 58.1868 60 50.2894 52.3065 54.6041 57.2727 60 50.3994 52.1316 54.1156 56.4372 59.2354 60 50.6328 52.1339 53.8339 55.7939 58.1079 60 50.9466 52.3391 53.9064 55.6988 57.7918 60 51.516 53.1188 54.9362 57.0349 59.5181 60 52.1676 54.0648 56.2558 58.8487 60 52.3857 54.0432 55.9551 58.2137 60 52.7726 54.3414 56.1539 58.3 60 53.1111 54.5492 56.1872 58.0898 60 53.5832 55.1702 57.0309 59.2799 60 54.017 55.6116 57.4626 59.6684 60 54.5073 56.1456 57.9814 60 55.0722 56.966 59.3043 60 55.1711 56.6101 58.2592 60 55.5387 56.8403 58.2887 59.9213 60 55.9511 57.2412 58.6902 60 56.6969 58.2765 60 57.2335 58.948 60 57.3561 58.7116 60 57.908 59.2958 60 58.6119 60 58.9462 60 59.3265 60 59.7889 60 60 60 0.178743 0.357221 0.543939 0.729737 0.925154 1.1108 1.29476 1.47449 1.64392 1.84009 2.03241 2.22148 2.41115 2.60583 2.79533 2.97784 3.16596 3.35274 3.54619 3.7368 3.9315 4.11935 4.32827 4.51637 4.71928 4.9146 5.10664 5.30176 5.50591 5.69359 5.89323 6.09244 6.28966 6.47398 6.66124 6.85954 7.06535 7.26084 7.44203 7.64369 7.84918 8.04313 8.22946 8.43076 8.62973 8.83425 9.03648 9.23732 9.43703 9.6264 9.83923 10.0586 10.2667 10.4789 10.6908 10.907 11.1332 11.3418 11.5589 11.7768 11.9922 12.1998 12.4137 12.6229 12.8247 13.0381 13.257 13.5036 13.7226 13.9697 14.2057 14.3983 14.6359 14.8715 15.1079 15.3279 15.533 15.76 16.0111 16.2443 16.4836 16.7045 16.9442 17.1704 17.3951 17.6298 17.8924 18.135 18.3568 18.5993 18.8637 19.1176 19.3716 19.6185 19.8323 20.0757 20.3225 20.5822 20.8484 21.0849 21.3026 21.5502 21.7992 22.0515 22.2899 22.5507 22.7685 23.0255 23.2938 23.5418 23.7968 24.0555 24.324 24.5906 24.8305 25.0926 25.3573 25.6309 25.9137 26.1824 26.445 26.7145 26.9726 27.2362 27.5088 27.7936 28.0849 28.3474 28.6216 28.8811 29.1378 29.4165 29.697 29.9605 30.2431 30.5401 30.8518 31.1204 31.404 31.7165 32.0086 32.3198 32.6109 32.9236 33.2134 33.5295 33.8412 34.122 34.4297 34.7407 35.0209 35.3414 35.6455 35.9501 36.2873 36.6073 36.9002 37.2124 37.5423 37.8732 38.1922 38.5314 38.8587 39.1628 39.4832 39.8222 40.1634 40.4879 40.8408 41.1572 41.4842 41.8532 42.2181 42.5747 42.9394 43.2805 43.6214 43.9848 44.3489 44.6874 45.0533 45.4283 45.7811 46.1437 46.5169 46.8869 47.2766 47.6394 48.0225 48.3827 48.7446 49.1123 49.4801 49.8662 50.2354 50.6426 51.0081 51.3856 51.787 52.2236 52.6463 53.0776 53.5004 53.9064 54.3154 54.696 55.1332 55.545 55.9734 56.4003 56.828 57.2511 57.6619 58.0812 58.5588 59.0187 59.4329 59.8791 60 8.80724 10.3444 12.1176 14.2128 16.7734 20.067 24.6895 32.5071 60 8.91105 10.3312 11.9577 13.8608 16.1542 19.0404 22.9369 28.9584 42.8701 60 9.17757 10.6742 12.4065 14.4626 16.9922 20.2807 24.9887 33.3766 60 9.70001 11.519 13.5743 15.9365 18.7135 22.0829 26.3677 32.2591 41.742 60 9.93214 11.7979 13.954 16.5079 19.6401 23.6917 29.4378 39.4206 60 9.62844 10.8665 12.232 13.7543 15.4742 17.4507 19.7741 22.5923 26.1752 31.0986 39.0129 60 10.2069 11.8991 13.8331 16.0897 18.7985 22.1874 26.7165 33.5669 48.0953 60 10.3987 12.0598 13.93 16.0696 18.5695 21.576 25.3482 30.4143 38.1561 55.2348 60 10.3196 11.6988 13.2776 15.1234 17.3455 20.1376 23.8968 29.6722 42.6903 60 10.9399 12.7691 14.8626 17.3096 20.2544 23.9527 28.9275 36.5559 53.6174 60 10.9034 12.456