<?xml version="1.0"?><VTKFile type="PolyData" version="0.1" byte_order="LittleEndian">
<PolyData>
<Piece NumberOfLines="6015" NumberOfPoints="6021">
<CellData Scalars=" CellData">
<DataArray type="Float32" Name="time" NumberOfComponents="1" format="ascii" >
0.144829 0.447851 0.455573 0.733014 1.03035 1.33845 1.34274 1.65266 1.65667 1.95803 2.26374 2.57906 2.57926 2.8759 3.19487 3.21 3.53098 3.54122 3.8642 3.8645 4.18554 4.4885 4.80675 5.11512 5.43597 5.76283 6.0845 6.42328 6.43538 6.77639 6.79578 7.1323 7.47781 7.49173 7.83958 7.84248 8.19263 8.22329 8.57595 8.58273 8.93095 9.28834 9.32559 9.67382 10.0362 10.0577 10.4107 10.7703 11.1236 11.496 11.5127 11.852 12.2296 12.2733 12.6446 13.0114 13.3751 13.7306 14.1165 14.5097 14.9066 14.959 15.3554 15.7397 16.1459 16.147 16.5563 16.5584 16.9708 16.9762 17.3919 17.4027 17.8218 17.8502 18.2728 18.2742 18.6838 19.1131 19.143 19.5598 19.9537 20.3751 20.7947 21.2255 21.6758 21.6767 22.1308 22.1457 22.5715 23.0322 23.4367 23.8828 24.3561 24.4011 24.8791 24.9393 25.355 25.8417 25.8721 26.3635 26.3938 26.8658 27.3481 27.8421 28.3513 28.8082 29.3127 29.837 29.8543 30.3839 30.3913 30.9263 30.9269 31.4515 31.9951 32.5465 32.5472 33.0992 33.6622 33.6865 34.2451 34.8203 34.8237 35.3921 35.967 36.5612 36.5662 37.1671 37.1903 37.7983 37.8145 38.4297 38.4369 39.0421 39.6717 39.6719 40.2779 40.9223 40.9284 41.5202 42.1799 42.1962 42.8643 42.8846 43.5615 43.5721 44.2578 44.2742 44.9347 45.6382 45.6491 46.2857 46.977 47.6773 48.4181 48.4219 49.1691 49.9143 50.6728 51.4463 52.2417 52.3184 53.127 53.1745 53.9643 54.7985 54.8065 55.654 55.6553 56.5165 56.5501 57.4062 58.2493 59.1451 60 8.09444 9.42071 10.9344 12.6973 14.8079 17.4381 20.9303 26.141 36.6732 60 8.58317 10.0514 11.7116 13.6217 15.8705 18.6044 22.0921 26.9145 34.7794 59.4609 60 8.89438 10.3611 12.0241 13.9441 16.2152 18.9954 22.5807 27.6369 36.2929 60 9.25949 10.7462 12.4172 14.3251 16.548 19.211 22.5326 26.9494 33.5603 47.0656 60 9.64797 11.163 12.8546 14.7693 16.9752 19.577 22.7485 26.8112 32.4707 41.8675 60 9.903 11.341 12.9995 14.9585 17.3516 20.4278 24.7396 32.0091 60 10.5018 12.18 14.0465 16.1489 18.5554 21.3693 24.7572 29.0148 34.7488 43.5636 60 10.6506 12.1168 13.7586 15.6239 17.7832 20.3469 23.5021 27.6063 33.4886 44.0015 60 11.1596 12.8066 14.6738 16.8291 19.3782 22.4976 26.5186 32.184 41.8615 60 11.6556 13.5234 15.7101 18.3473 21.6702 26.1654 33.1427 49.5784 60 11.6157 12.9541 14.4538 16.1592 18.1357 20.4864 23.3866 27.1742 32.6443 42.6324 60 12.1975 13.7755 15.5654 17.6329 20.0806 23.0801 26.9553 32.4381 41.9047 60 12.4732 13.9395 15.5942 17.4933 19.7214 22.4172 25.8305 30.4874 37.8526 56.8554 60 12.7329 14.0747 15.584 17.3087 19.3207 21.7351 24.7542 28.786 34.8743 47.7092 60 13.2127 14.7148 16.4239 18.4064 20.7667 23.6836 27.5032 33.0482 43.3258 60 13.6942 15.333 17.2076 19.3974 22.0303 25.3324 29.764 36.5261 51.3559 60 14.1885 15.9933 18.0708 20.5182 23.4966 27.3019 32.5775 41.2369 60 14.3349 15.859 17.5723 19.5285 21.8079 24.5388 27.9457 32.4771 39.2635 53.1541 60 14.785 16.4139 18.278 20.4571 23.0798 26.3739 30.8062 37.6059 52.8444 60 15.1332 16.7327 18.5578 20.6826 23.2255 26.3923 30.592 36.8442 49.3838 60 15.3247 16.6718 18.1908 19.932 21.9718 24.4342 27.5413 31.7552 38.3322 54.221 60 16.0827 17.8198 19.7924 22.0747 24.7822 28.1107 32.4321 38.6039 49.5279 60 16.2719 17.7798 19.4847 21.4459 23.7542 26.5595 30.1363 35.077 43.1156 60 17.0388 18.9332 21.0682 23.5138 26.3761 29.8267 34.1719 40.0441 49.1386 60 17.7637 20.0303 22.6105 25.6052 29.1735 33.5884 39.3809 47.8218 60 17.395 18.7548 20.3058 22.1107 24.2689 26.9537 30.5076 35.7785 46.219 60 18.0506 19.7015 21.62 23.91 26.751 30.4946 35.997 46.5845 60 18.5622 20.2739 22.1764 24.3177 26.7666 29.6264 33.0634 37.3709 43.1454 51.9353 60 19.0985 20.8985 22.9042 25.1689 27.7695 30.8231 34.5216 39.2127 45.6321 55.8543 60 19.5654 21.4447 23.5556 25.9631 28.7644 32.1141 36.2805 41.7947 49.97 60 19.7029 21.2667 23.0653 25.1817 27.7529 31.0293 35.5505 42.8892 60 20.1362 21.6847 23.4105 25.3594 27.5976 30.2264 33.4116 37.4536 42.9902 51.8253 60 20.4821 22.0108 23.8084 25.9899 28.7655 32.5846 38.7433 56.562 60 21.0321 22.6854 24.5804 26.8003 29.4798 32.8604 37.4442 44.5946 60 21.4066 22.9806 24.8036 26.9697 29.6384 33.1162 38.1176 47.1412 60 21.6569 23.0418 24.6146 26.4346 28.5942 31.2499 34.7 39.6325 48.388 60 22.2661 23.7965 25.5611 27.6447 30.1887 33.4559 38.0283 45.7072 60 22.8777 24.6299 26.687 29.178 32.3361 36.6549 43.5214 60 23.0225 24.4122 25.9945 27.8318 30.0222 32.7346 36.2981 41.5046 51.3417 60 23.4043 24.7192 26.1856 27.8431 29.7488 31.9907 34.7133 38.1803 42.959 50.6951 60 24.1024 25.8057 27.8299 30.325 33.5782 38.2624 46.7417 60 24.5049 26.086 27.8752 29.9356 32.3644 35.3227 39.1075 44.3678 53.0534 60 24.9434 26.5216 28.3481 30.5156 33.1814 36.6455 41.6001 50.4061 60 25.4815 27.0567 28.8659 30.9909 33.5656 36.8332 41.3092 48.4533 60 25.8361 27.2427 28.8052 30.5623 32.5697 34.9106 37.7185 41.227 45.9067 52.9556 60 26.2452 27.6346 29.2287 31.0987 33.3603 36.2221 40.1228 46.2781 60 26.7603 28.1728 29.7775 31.635 33.8401 36.5536 40.0825 45.138 54.1622 60 27.4092 28.9867 30.761 32.7884 35.1532 37.9907 41.5381 46.2739 53.4203 60 27.9661 29.6158 31.4822 33.6312 36.1638 39.2473 43.1901 48.6644 57.6808 60 28.3227 29.7904 31.4361 33.309 35.482 38.07 41.2698 45.4634 51.561 60 28.825 30.2695 31.9092 33.8053 36.0529 38.813 42.3901 47.4819 56.4138 60 29.6306 31.4099 33.4332 35.7783 38.5674 42.0087 46.5033 52.9956 60 29.812 31.2288 32.82 34.6346 36.7457 39.2695 42.4074 46.5581 52.7049 60 30.542 32.2145 34.1823 36.5727 39.6183 43.8196 50.6343 60 30.9488 32.4674 34.1887 36.1754 38.5243 41.3977 45.0995 50.3095 59.1843 60 31.6994 33.5337 35.6249 38.0571 40.9635 44.5749 49.3467 56.3982 60 31.8826 33.3238 34.93 36.7436 38.8263 41.2724 44.2357 47.9955 53.1436 60 32.4183 33.9432 35.722 37.8564 40.5252 44.0886 49.4676 60 33.1094 34.7916 36.7021 38.9126 41.5353 44.7598 48.9473 54.9303 60 33.5293 35.0613 36.7922 38.7814 41.1196 43.9561 47.5622 52.5179 60 33.947 35.3354 36.9448 38.8593 41.2223 44.3103 48.7753 56.956 60 34.6413 36.2127 38.0109 40.1124 42.6409 45.8152 50.0827 56.6186 60 35.1752 36.7004 38.4265 40.4148 42.7591 45.6156 49.2725 54.3607 60 35.6421 37.155 38.8958 40.9456 43.4383 46.6196 51.0213 58.212 60 36.1989 37.6908 39.3622 41.2623 43.4635 46.0797 49.3047 53.5103 59.5673 60 36.9281 38.5468 40.3961 42.5527 45.1395 48.3722 52.6844 59.1811 60 37.6089 39.2552 41.1474 43.3721 46.0717 49.5054 54.228 60 37.9534 39.4041 41.0641 43.0042 45.3387 48.2697 52.2107 58.2483 60 38.5904 40.0051 41.5778 43.3485 45.3742 47.7409 50.5872 54.158 58.9531 60 39.395 41.0214 42.8845 45.0653 47.6946 51.0063 55.4832 60 40.0667 41.786 43.7512 46.0445 48.7977 52.243 56.8495 60 40.516 42.0771 43.8797 46.0123 48.6235 51.9923 56.7463 60 41.1987 42.8026 44.6083 46.6739 49.0873 51.9895 55.6303 60 41.7384 43.2411 44.9431 46.9056 49.2229 52.0522 55.6861 60 42.4516 44.1235 46.0354 48.2682 50.9515 54.3146 58.8228 60 43.1699 44.94 46.97 49.3493 52.2238 55.8553 60 43.5747 44.9981 46.5833 48.3717 50.4233 52.8291 55.7376 59.4158 60 44.3977 46.0219 47.8913 50.0932 52.7721 56.1933 60 45.0156 46.5352 48.2328 50.1558 52.3734 54.9925 58.1911 60 45.8052 47.4794 49.3762 51.5637 54.1478 57.3047 60 46.4581 48.1058 49.9987 52.2228 54.9191 58.3436 60 47.1143 48.7003 50.513 52.6279 55.1666 58.3425 60 47.7133 49.1449 50.7354 52.5244 54.5688 56.9537 59.8159 60 48.8215 50.6612 52.7323 55.1014 57.8688 60 49.2554 50.7754 52.4842 54.4354 56.7093 59.4342 60 50.0056 51.5612 53.3588 55.4879 58.0991 60 50.6618 52.0957 53.7098 55.5561 57.7129 60 51.5498 53.1189 54.8572 56.8057 59.0223 60 52.233 53.7153 55.3883 57.3085 59.5617 60 53.2394 54.935 56.853 59.0607 60 54.1759 56.0252 58.1536 60 54.6632 56.1175 57.7666 59.6707 60 55.3242 56.6291 58.1202 59.8597 60 56.6074 58.4151 60 57.3741 59.1102 60 58.1274 59.7795 60 58.8223 60 59.8304 60 60 0.179851 0.541206 0.928666 0.943946 1.3337 1.34332 1.70487 2.08572 2.48205 2.50925 2.90804 2.90835 3.30948 3.33085 3.71347 4.11936 4.12232 4.51021 4.90919 5.30262 5.71807 5.75103 6.13565 6.55621 6.56998 6.99323 6.99951 7.42543 7.42846 7.85706 7.8766 8.30478 8.7359 9.1728 9.18004 9.60837 10.0509 10.0753 10.5157 10.9641 10.9683 11.3923 11.8466 11.8834 12.3409 12.3453 12.8059 12.8106 13.2743 13.2867 13.7538 13.766 14.2363 14.2581 14.7318 14.7697 15.2122 15.6687 16.1523 16.1526 16.633 17.1235 17.134 17.6282 17.6656 18.1636 18.2172 18.6959 19.163 19.672 19.68 20.1929 20.2118 20.6638 21.1842 21.2281 21.7393 22.2679 22.2855 22.8184 22.8337 23.3709 23.4079 23.9497 23.9777 24.524 24.5535 25.0957 25.651 25.666 26.226 26.2456 26.8003 27.3422 27.8811 28.4096 28.9926 29.0062 29.5943 29.6082 30.2015 30.2329 30.8317 30.8738 31.4782 31.4906 32.0808 32.6739 33.287 33.9132 33.9332 34.5277 35.1655 35.1853 35.8292 35.8465 36.4906 37.1039 37.719 38.3873 38.422 39.0972 39.1148 39.7664 40.4551 40.4587 41.1545 41.1836 41.8768 42.5872 42.5963 43.3143 43.3328 44.053 44.7842 45.4894 46.2385 46.2961 47.0541 47.1004 47.8328 48.5449 49.3284 49.3296 50.1221 50.1295 50.9314 50.9365 51.748 51.761 52.5824 52.6083 53.4051 54.2213 55.073 55.0911 55.9012 56.766 57.6501 57.7429 58.6295 59.4882 60 8.71297 10.3285 12.1736 14.3247 16.9036 20.1239 24.4142 30.8612 44.2146 60 9.02549 10.535 12.2496 14.2338 16.5884 19.4845 23.2476 28.63 38.1957 60 9.33909 10.705 12.265 14.0835 16.2635 18.9854 22.611 28.0568 39.32 60 9.97964 11.5688 13.3864 15.5095 18.062 21.2626 25.5568 32.1051 46.4309 60 10.4197 12.0508 13.9151 16.0907 18.7026 21.9709 26.3405 32.9548 47.0225 60 11.0519 12.9304 15.0964 17.6543 20.7778 24.79 30.4074 39.8505 60 11.5013 13.2927 15.2716 17.482 19.9852 22.8709 26.2774 30.435 35.7713 43.2315 55.7265 60 11.8625 13.5761 15.4873 17.6476 20.132 23.0551 26.6057 31.129 37.3679 47.484 60 12.141 13.6433 15.3203 17.2179 19.4031 21.9789 25.1161 29.1295 34.7068 43.913 60 12.5958 14.126 15.83 17.7521 19.9568 22.5415 25.6652 29.6135 34.984 43.421 60 13.3325 15.1776 17.2401 19.5782 22.277 25.4686 29.3741 34.4075 41.4975 53.6 60 13.6685 15.4213 17.4018 19.6784 22.3554 25.6041 29.7372 35.4239 44.5924 60 13.8946 15.4512 17.2854 19.5183 22.3727 26.3337 32.8501 54.8593 60 14.301 15.7851 17.4823 19.4644 21.8465 24.8321 28.8346 34.9281 48.1728 60 14.9607 16.6191 18.5108 20.7122 23.3453 26.6214 30.9598 37.3994 50.1883 60 15.3335 16.945 18.8104 21.0251 23.7507 27.2958 32.3761 41.4517 60 15.7179 17.1711 18.7933 20.6291 22.7435 25.2364 28.2733 32.1602 37.566 46.5061 60 16.3964 18.0817 19.9839 22.1674 24.7298 27.8311 31.7599 37.1249 45.6274 60 16.8642 18.5199 20.3689 22.4622 24.8745 27.7206 31.1918 35.6419 41.8502 52.1949 60 17.1545 18.5909 20.2178 22.0935 24.3081 27.0116 30.4831 35.3396 43.4881 60 17.9088 19.6464 21.6091 23.8641 26.5138 29.7264 33.8075 39.408 48.3828 60 18.4769 20.3352 22.4761 25.0009 28.0783 32.02 37.5092 46.6172 60 19.0036 20.9072 23.1235 25.7756 29.078 33.4569 39.9739 53.031 60 19.1208 20.5638 22.1807 24.0194 26.1504 28.6846 31.811 35.8936 41.7885 52.5458 60 19.6363 21.0581 22.639 24.4194 26.4568 28.8383 31.704 35.3025 40.1423 47.561 60 20.0636 21.4265 22.9674 24.7399 26.8259 29.361 32.5928 37.0559 44.3139 60 20.9104 22.6861 24.7518 27.2208 30.2899 34.3476 40.3513 52.1496 60 21.3811 23.118 25.0954 27.3907 30.1261 33.5115 37.9552 44.4366 56.6176 60 21.6393 23.037 24.6203 26.4462 28.6028 31.2368 34.6217 39.3643 47.351 60 22.4215 24.1012 25.9938 28.161 30.6964 33.7511 37.5944 42.7803 50.7853 60 22.9623 24.6885 26.6801 29.034 31.9118 35.6157 40.8198 49.6459 60 23.4423 25.1013 27.0173 29.285 32.0629 35.6495 40.7182 49.4439 60 23.9735 25.5845 27.3971 29.4692 31.8879 34.7927 38.4294 43.2958 50.6756 60 24.1995 25.4403 26.8374 28.4359 30.3039 32.5508 35.3706 39.1594 44.9549 57.7886 60 25.0253 26.5928 28.4435 30.7027 33.6036 37.6616 44.4695 60 25.6101 27.2127 29.0193 31.0892 33.5126 36.4358 40.1196 45.1048 52.8485 60 26.4039 28.3321 30.5368 33.1106 36.2026 40.0754 45.2615 53.1379 60 26.9877 28.9593 31.2254 33.8897 37.1228 41.235 46.8909 56.0018 60 27.4644 29.3345 31.4547 33.9024 36.7978 40.3419 44.9122 51.3564 60 27.5957 28.963 30.5006 32.2569 34.3047 36.7605 39.8282 43.9177 50.071 60 28.729 30.7312 33.061 35.8469 39.312 43.8981 50.6975 60 29.0613 30.6826 32.5126 34.6129 37.0774 40.0595 43.8361 48.9906 57.1493 60 29.3827 30.7336 32.2353 33.9255 35.8586 38.1162 40.8299 44.2316 48.7931 55.7416 60 30.0927 31.6329 33.3431 35.2654 37.46 40.0169 43.08 46.9002 51.9794 59.5799 60 30.7958 32.4683 34.3432 36.4763 38.9505 41.8956 45.5344 50.2975 57.2071 60 31.3008 32.8581 34.609 36.6086 38.9394 41.7333 45.221 49.8652 56.8371 60 31.9045 33.5662 35.4522 37.6328 40.2172 43.3898 47.4999 53.3451 60 32.4181 33.906 35.5668 37.4463 39.6107 42.1623 45.2702 49.2468 54.7746 60 33.1188 34.7676 36.6651 38.9001 41.619 45.0911 49.9004 57.7775 60 33.5993 35.0779 36.7808 38.7886 41.2349 44.3663 48.7223 55.9303 60 34.2349 35.7112 37.4071 39.3996 41.815 44.8826 49.0903 55.8258 60 34.9745 36.4944 38.185 40.0894 42.2697 44.8194 47.8899 51.7501 56.952 60 35.7306 37.3737 39.2279 41.3556 43.8517 46.8709 50.6924 55.9031 60 36.8474 38.9901 41.4102 44.1904 47.4569 51.4165 56.4452 60 36.9616 38.5077 40.226 42.1596 44.3704 46.9513 50.0517 53.9347 59.134 60 37.5593 39.0742 40.8199 42.8795 45.3911 48.6107 53.1011 60 38.2164 39.7328 41.5174 43.6856 46.449 50.2631 56.4581 60 38.8749 40.3412 41.9772 43.8273 45.9561 48.4629 51.5113 55.402 60 39.8756 41.7735 43.9299 46.4268 49.3919 53.0425 57.7939 60 40.1885 41.7066 43.4001 45.3145 47.5165 50.1079 53.2566 57.27 60 40.8695 42.4772 44.3025 46.4139 48.9177 51.9942 55.9854 60 41.7211 43.4932 45.5002 47.8138 50.545 53.8785 58.1573 60 42.1511 43.6455 45.3888 47.4808 50.0967 53.5897 58.8639 60 42.9715 44.5625 46.4197 48.6505 51.444 55.1837 60 43.4784 44.7672 46.2471 47.9851 50.0906 52.7616 56.4183 60 44.5429 46.2148 48.1427 50.4192 53.1992 56.7701 60 45.0515 46.475 48.0703 49.8849 51.9885 54.4912 57.5806 60 45.8613 47.4591 49.3366 51.6131 54.5051 58.4739 60 46.6479 48.2405 50.0091 51.9975 54.2684 56.9153 60 47.2347 48.6502 50.256 52.1115 54.3088 57.0029 60 48.2216 49.939 51.8754 54.0951 56.6953 59.834 60 48.6397 49.9557 51.4511 53.1829 55.24 57.7735 60 49.5587 51.0076 52.6406 54.5115 56.7015 59.3422 60 50.398 51.9172 53.6243 55.5725 57.8412 60 51.5552 53.572 55.8839 58.5923 60 51.8608 53.3845 55.1277 57.1644 59.6141 60 52.5613 53.9201 55.4771 57.2999 59.4985 60 53.4995 54.9779 56.6813 58.6908 60 54.4203 56.0091 57.7855 59.7996 60 55.1803 56.687 58.3814 60 55.9718 57.3863 58.9888 60 57.1577 58.9224 60 57.7126 59.1362 60 58.7879 60 59.5343 60 60 60 0.140164 0.417914 0.711494 0.711598 0.996506 1.29329 1.29886 1.59733 1.62006 1.91605 2.21431 2.51796 2.53035 2.83417 3.14137 3.14578 3.45258 3.76337 3.78241 4.09513 4.10387 4.41503 4.70408 5.02226 5.02507 5.34517 5.34809 5.66311 5.98389 6.29006 6.60574 6.92176 7.25346 7.30268 7.63676 7.64633 7.97125 8.30955 8.3488 8.68951 8.69608 9.0349 9.35607 9.67627 10.0256 10.0269 10.3752 10.7281 11.0823 11.4153 11.7762 11.7876 12.1244 12.4847 12.8086 13.1791 13.1875 13.5433 13.9045 14.2811 14.6535 15.037 15.048 15.4178 15.8069 15.8584 16.2507 16.2612 16.6565 16.6633 17.0551 17.4384 17.8425 17.863 18.2182 18.6283 18.6561 19.0505 19.4671 19.4739 19.8609 20.2667 20.6929 20.7143 21.1441 21.1508 21.5841 21.5964 22.0334 22.0497 22.4904 22.5134 22.9196 23.3657 23.8174 23.8238 24.2659 24.7253 24.7279 25.1877 25.5958 26.0516 26.5267 26.5343 27.0138 27.0559 27.5401 27.542 27.9806 28.4733 28.4786 28.965 29.4669 29.4758 29.9825 29.9852 30.4968 30.5155 31.0002 31.4529 31.9066 32.4349 32.9707 32.9944 33.5358 33.5689 34.1162 34.1176 34.6706 34.6838 35.2427 35.2621 35.8271 35.8411 36.4123 36.4302 37.0077 37.0243 37.599 38.1894 38.2116 38.8013 39.4052 39.4489 40.022 40.6399 40.6678 41.2934 41.3437 41.9772 42.0012 42.6426 42.6717 43.3212 43.3599 43.9928 44.6442 45.3183 45.3263 46.0091 46.0566 46.7415 47.4304 48.1179 48.8377 48.895 49.6237 50.3641 50.4062 51.1576 51.1875 51.9052 52.6782 52.7462 53.5316 53.6026 54.3955 55.2018 56.0084 56.7583 57.6053 57.6359 58.4971 58.5267 59.3693 60 7.57898 9.08947 10.7813 12.7039 14.9305 17.5755 20.8334 25.0768 31.1739 42.1461 60 8.08737 9.82093 11.7694 13.9936 16.5847 19.6881 23.5578 28.7004 36.3891 52.0344 60 8.18775 9.72049 11.5246 13.7173 16.5134 20.3762 26.6639 46.1045 60 8.53353 10.0199 11.6608 13.4922 15.564 17.9491 20.7595 24.1804 28.553 34.6198 44.5955 60 8.71089 10.0393 11.5328 13.2382 15.2257 17.6077 20.5802 24.5365 30.4692 42.668 60 9.01653 10.2821 11.7029 13.3224 15.2052 17.4541 20.2466 23.932 29.3653 39.9215 60 9.84725 11.6571 13.6777 15.9649 18.5997 21.7073 25.495 30.3464 37.1031 48.3152 60 9.90174 11.4122 13.1141 15.0634 17.3443 20.0931 23.5529 28.2245 35.4466 52.1596 60 10.2927 11.9188 13.8723 16.3192 19.5965 24.5753 35.3117 60 10.6717 12.2813 14.1234 16.2766 18.8678 22.1221 26.4997 33.2126 48.2283 60 11.1828 12.9657 14.9968 17.3562 20.1712 23.6607 28.2535 34.9876 47.8487 60 11.4812 13.1784 15.0673 17.1965 19.6364 22.4932 25.9395 30.2835 36.164 45.305 60 11.7211 13.315 15.1506 17.3146 19.9506 23.3239 28.0138 35.7644 60 12.1684 13.8758 15.8712 18.2716 21.2845 25.3338 31.5307 45.281 60 12.2898 13.707 15.3236 17.2048 19.4546 22.2536 25.9597 31.4589 42.3689 60 12.6942 14.2029 15.9309 17.953 20.3903 23.4584 27.6026 34.0134 48.8914 60 13.3572 15.1979 17.2983 19.7439 22.6709 26.3165 31.1525 38.3557 52.8276 60 13.3771 14.8454 16.5461 18.5668 21.0566 24.3013 28.9681 37.3905 60 13.6827 15.0692 16.642 18.4589 20.6098 23.2459 26.6517 31.4711 39.7953 60 14.3939 16.1716 18.1926 20.534 23.3172 26.7484 31.2239 37.6723 49.3675 60 14.5136 16.0234 17.7225 19.6655 21.934 24.6598 28.0747 32.6498 39.6049 54.6405 60 14.9863 16.6302 18.4915 20.6365 23.1674 26.2545 30.213 35.7371 44.9489 60 15.1747 16.6181 18.2395 20.0893 22.2423 24.8179 28.0234 32.2704 38.5805 51.1528 60 15.6655 17.2179 19.0312 21.2109 23.9437 27.6093 33.1962 45.3933 60 16.0855 17.6315 19.3804 21.3933 23.7647 26.6503 30.3366 35.4465 43.8302 60 16.7988 18.7449 20.9725 23.5769 26.7121 30.6516 35.9556 44.1043 60 16.749 18.1349 19.6952 21.4802 23.5656 26.0734 29.2196 33.444 39.8967 54.1059 60 17.3252 18.9342 20.7808 22.9476 25.5694 28.8897 33.4211 40.5928 59.1657 60 17.764 19.4177 21.297 23.4735 26.0589 29.2435 33.3913 39.3511 50.0764 60 18.0852 19.6786 21.478 23.5447 25.9724 28.9144 32.6488 37.7662 45.9407 60 18.3011 19.7328 21.3602 23.245 25.4845 28.2438 31.8393 37.01 46.3384 60 19.0101 20.7657 22.7337 24.9723 27.5681 30.6573 34.4723 39.4625 46.6916 60 19.3017 20.9287 22.7407 24.7854 27.1315 29.8834 33.2114 37.4226 43.1618 52.2164 60 19.5971 21.1103 22.807 24.7379 26.9782 29.6462 32.9449 37.2677 43.5523 55.2506 60 20.0321 21.5887 23.3527 25.3881 27.7938 30.735 34.5209 39.8408 48.8666 60 20.4848 22.1116 23.9451 26.0458 28.5051 31.4709 35.2078 40.2628 48.1082 60 20.8956 22.517 24.3668 26.5203 29.0969 32.3049 36.5576 42.8833 55.5346 60 21.3485 23.059 25.0363 27.3796 30.2557 33.9807 39.2755 48.5295 60 21.7603 23.393 25.181 27.1568 29.3647 31.8664 34.7524 38.1624 42.3302 47.6913 55.2164 60 21.8988 23.2892 24.8311 26.5617 28.5336 30.8253 33.561 36.9549 41.4277 48.0032 60 22.8068 24.77 27.0303 29.694 32.9371 37.0838 42.8407 52.3206 60 22.7703 24.2013 25.8138 27.6608 29.8222 32.4276 35.7078 40.139 46.9965 60 23.1876 24.6164 26.2268 28.0718 30.2316 32.836 36.1171 40.5545 47.438 60 23.6445 25.0883 26.7064 28.5469 30.6807 33.2193 36.3533 40.4504 46.3786 57.2626 60 24.0463 25.4808 27.1259 29.0542 31.384 34.3275 38.3285 44.6038 60 25.0149 27.0248 29.3317 32.0387 35.3143 39.4627 45.125 54.0889 60 24.9904 26.4554 28.0934 29.9509 32.0959 34.6341 37.7425 41.7541 47.4188 57.1501 60 25.5617 27.1066 28.858 30.8799 33.2714 36.1985 39.9724 45.2921 54.3889 60 25.8521 27.1774 28.6555 30.326 32.2468 34.5062 37.2498 40.7433 45.5575 53.3474 60 27.0967 29.3126 31.836 34.7662 38.2602 42.5877 48.2753 56.5918 60 26.9876 28.5662 30.3648 32.4548 34.9491 38.0426 42.1175 48.102 59.589 60 27.6112 29.3632 31.3284 33.5661 36.164 39.261 43.0956 48.1323 55.4886 60 27.8002 29.2198 30.8284 32.6841 34.877 37.5574 41.0058 45.8473 54.0435 60 28.7058 30.6583 32.854 35.3619 38.286 41.7923 46.1718 52.0091 60 28.7614 30.2359 31.9435 33.9717 36.4696 39.7221 44.393 52.7869 60 29.4394 31.1815 33.2397 35.7546 38.9885 43.525 51.1875 60 29.8213 31.362 33.0872 35.0471 37.3158 40.0092 43.3238 47.6346 53.8112 60 30.2236 31.7188 33.416 35.3786 37.705 40.5617 44.2641 49.5338 58.7762 60 30.8487 32.503 34.3772 36.539 39.0928 42.2132 46.2252 51.8519 60 31.2421 32.7221 34.3707 36.2313 38.3665 40.8717 43.9025 47.7396 52.974 60 31.8971 33.5323 35.3607 37.4341 39.8285 42.6617 46.1316 50.6098 56.9339 60 32.1813 33.5639 35.1379 36.9646 39.1414 41.8346 45.3685 50.5188 60 33.3469 35.4017 37.7 40.3072 43.3197 46.8869 51.2603 56.9143 60 33.3212 34.7569 36.3941 38.2986 40.5752 43.4054 47.148 52.6876 60 33.7166 35.0686 36.6371 38.505 40.8139 43.839 48.235 56.4066 60 34.2707 35.6195 37.1468 38.907 40.9844 43.5187 46.7695 51.3087 58.8896 60 34.9555 36.448 38.1279 40.0489 42.2921 44.988 48.3664 52.8946 59.7854 60 35.5914 37.2081 39.0391 41.1502 43.6426 46.6854 50.5924 56.0583 60 36.0468 37.5352 39.1994 41.0867 43.2661 45.8451 49.0036 53.08 58.837 60 36.6132 38.145 39.9015 41.9602 44.4473 47.5892 51.8585 58.5507 60 37.1616 38.7364 40.5143 42.5555 44.9518 47.8533 51.5317 56.5612 60 37.6216 39.0938 40.7555 42.6624 44.9 47.6073 51.0354 55.7131 60 38.3179 39.901 41.6701 43.6747 45.9872 48.7197 52.0594 56.3558 60 38.9721 40.5871 42.4045 44.4824 46.9082 49.8221 53.4717 58.3582 60 39.6147 41.2666 43.0989 45.1559 47.5003 50.226 53.4814 57.5233 60 40.043 41.5941 43.3371 45.3265 47.6435 50.4177 53.875 58.4655 60 41.0111 42.9821 45.2273 47.8356 50.9474 54.8049 59.8817 60 41.3729 43.0698 44.9858 47.186 49.7697 52.8995 56.8695 60 41.7611 43.2002 44.837 46.7347 48.9925 51.7796 55.4231 60 42.7143 44.4846 46.4496 48.6578 51.1776 54.112 57.6245 60 43.2639 44.9303 46.7946 48.9101 51.3552 54.2519 57.8058 60 43.9941 45.8333 47.9303 50.3696 53.2849 56.9082 60 44.3427 45.9439 47.7694 49.8925 52.4294 55.5815 59.7461 60 44.677 46.0022 47.4856 49.1701 51.119 53.4308 56.2727 59.9621 60 45.5532 47.1111 48.8415 50.7872 53.0096 55.6007 58.7076 60 46.0171 47.3505 48.8773 50.6634 52.8152 55.522 59.1737 60 46.954 48.5267 50.3172 52.3954 54.872 57.9369 60 47.7705 49.5037 51.5002 53.8546 56.724 60 48.1228 49.4455 50.963 52.7426 54.8944 57.6162 60 49.2999 51.1365 53.2555 55.7598 58.8212 60 50.027 51.8626 53.9864 56.5062 59.6042 60 50.5598 52.1298 53.9123 55.9739 58.4186 60 51.082 52.3914 53.8781 55.5979 57.6376 60 52.0156 53.5426 55.2658 57.2434 59.5637 60 52.7338 54.1925 55.8446 57.7491 59.9976 60 53.5514 55.0496 56.7067 58.5604 60 54.3843 55.8785 57.5262 59.3629 60 55.2346 56.8962 58.7952 60 55.9686 57.5142 59.2801 60 56.9593 58.6309 60 57.6266 59.0739 60 58.5832 60 59.7363 60 60 60 0.185783 0.565231 0.586209 0.968019 0.992959 1.36578 1.75223 1.81549 2.19319 2.58463 2.61028 3.00425 3.00993 3.40635 3.42264 3.82161 3.84172 4.22043 4.61447 4.99617 5.40287 5.81428 5.82493 6.23904 6.25372 6.67059 6.68035 7.09998 7.10269 7.5105 7.92364 8.3396 8.77017 8.78791 9.19637 9.62987 10.0691 10.0715 10.5138 10.5438 10.9893 11.0188 11.4677 11.4693 11.9213 11.9551 12.3936 12.8521 12.8756 13.3375 13.3697 13.8146 14.2737 14.7458 14.7687 15.2444 15.2632 15.7381 16.1992 16.6855 16.7205 17.2108 17.2129 17.707 17.7157 18.2137 18.2482 18.7154 19.181 19.6904 19.6962 20.1987 20.7162 20.7196 21.2336 21.7595 21.77 22.2985 22.8331 22.8715 23.3857 23.9294 23.9418 24.4637 25.0166 25.0338 25.5916 25.6163 26.1792 26.1793 26.7472 26.7582 27.3311 27.359 27.9212 28.5046 28.5396 29.1286 29.1696 29.7644 29.782 30.3825 30.4241 31.0306 31.057 31.6695 31.6778 32.2962 32.3003 32.9248 32.9474 33.5781 33.5799 34.2169 34.2283 34.8717 34.9144 35.5575 36.2144 36.2473 36.9112 36.9262 37.5526 38.2301 38.2488 38.9337 38.9613 39.6538 39.6738 40.374 40.4264 41.1348 41.2086 41.9257 41.9347 42.6599 42.6646 43.3982 43.414 44.1123 44.8625 44.8712 45.6303 45.6934 46.4565 47.1903 47.9773 48.0319 48.8225 49.6297 49.64 50.4575 50.4628 51.2908 51.3734 52.2133 52.2148 53.0657 53.1094 53.9615 54.7764 55.5773 56.4739 56.5343 57.4429 58.3659 58.4382 59.3723 60 8.43279 9.72102 11.1677 12.8173 14.7363 17.03 19.8813 23.6514 29.2304 40.1996 60 9.0019 10.4245 12.0204 13.8377 15.948 18.4641 21.5804 25.6757 31.6627 42.9938 60 9.5451 11.0719 12.7927 14.764 17.0714 19.8536 23.3579 28.0957 35.4401 52.6407 60 10.0859 11.7396 13.5878 15.6824 18.0994 20.9562 24.4496 28.947 35.269 46.0046 60 10.3838 11.825 13.4557 15.3335 17.5468 20.2422 23.6898 28.4795 36.3799 60 11.2318 13.118 15.2114 17.5632 20.2464 23.3697 27.1065 31.7583 37.9235 47.0902 60 11.5964 13.4341 15.5679 18.1122 21.2632 25.4042 31.4576 42.9133 60 12.255 14.2403 16.418 18.8294 21.5306 24.6011 28.1581 32.3851 37.5946 44.3864 54.1625 60 12.2774 13.8056 15.5119 17.4435 19.6691 22.2944 25.4952 29.5967 35.3135 44.8185 60 12.7351 14.264 15.9925 17.9804 20.3197 23.162 26.7842 31.7836 39.9026 60 13.2742 14.939 16.8343 19.0345 21.6566 24.9019 29.162 35.3765 47.0607 60 13.7624 15.4829 17.449 19.7428 22.4958 25.9389 30.5384 37.4885 52.1754 60 13.9984 15.4791 17.1398 19.0305 21.2251 23.8406 27.0776 31.3265 37.5238 49.1711 60 14.5621 16.1793 18.0207 20.1588 22.7079 25.8645 30.012 36.0726 47.5278 60 14.9879 16.5517 18.3366 20.4154 22.9044 26.0063 30.1249 36.2716 48.7028 60 15.6627 17.4565 19.5265 21.9735 24.966 28.8195 34.2385 43.4495 60 16.0768 17.7999 19.7973 22.173 25.1047 28.9349 34.4703 44.5975 60 16.4808 18.1028 19.9563 22.1186 24.7134 27.9584 32.2922 38.8377 52.6465 60 16.8834 18.4063 20.1001 22.008 24.1923 26.7466 29.8225 33.689 38.8988 46.9157 60 17.3036 18.7987 20.4958 22.4585 24.7855 27.6435 31.3488 36.626 45.898 60 17.7439 19.1979 20.8394 22.7239 24.9362 27.6147 31.01 35.6516 43.0256 60 18.2355 19.6883 21.3539 23.3053 25.6614 28.6354 32.671 38.9772 54.2968 60 19.035 20.8601 22.9432 25.3691 28.2735 31.8926 36.6971 43.8647 58.3415 60 19.4033 21.0857 23.0006 25.2229 27.8705 31.1457 35.4415 41.6977 53.4029 60 20.0841 21.9294 23.9777 26.2793 28.9056 31.9638 35.6242 40.1838 46.2334 55.2475 60 20.3627 21.9361 23.7003 25.7079 28.037 30.8107 34.2396 38.7322 45.2615 57.4032 60 20.9653 22.6483 24.5964 26.9093 29.7556 33.4575 38.7619 48.2352 60 21.2432 22.6289 24.1905 25.9791 28.0721 30.5947 33.7702 38.059 44.6929 60 21.7984 23.2016 24.8069 26.6824 28.9379 31.7676 35.5674 41.3723 54.1624 60 22.3208 23.7585 25.4187 27.3834 29.7897 32.8957 37.2828 44.8246 60 23.3752 25.4632 28.0072 31.264 35.7951 43.2954 60 23.4323 24.8528 26.4771 28.3736 30.6526 33.5079 37.3337 43.1514 55.7402 60 24.1805 25.8678 27.7953 30.043 32.7387 36.1068 40.5982 47.3604 60 24.6525 26.25 28.035 30.0576 32.3909 35.148 38.5176 42.8521 48.9361 59.2291 60 25.1459 26.6874 28.4489 30.5038 32.9698 36.0534 40.1714 46.3902 59.5025 60 25.7136 27.2505 29.0017 31.0367 33.4657 36.4787 40.4487 46.2825 57.4999 60 26.4641 28.1835 30.0792 32.1915 34.5764 37.3147 40.5297 44.4232 49.3604 56.1139 60 26.6428 28.0312 29.6411 31.5568 33.9224 37.0161 41.4965 49.7418 60 27.3105 28.7516 30.3895 32.2865 34.5402 37.3166 40.9338 46.1337 55.5044 60 28.0921 29.7922 31.7551 34.0774 36.9207 40.5886 45.764 54.6366 60 28.7886 30.5674 32.5481 34.7825 37.3453 40.3499 43.981 48.5708 54.8141 60 29.4299 31.2721 33.3757 35.827 38.7644 42.4295 47.3057 54.613 60 29.6841 31.2024 32.9348 34.9517 37.3653 40.3708 44.3563 50.2884 60 30.3196 31.9602 33.8558 36.1002 38.8515 42.4075 47.4432 56.1572 60 31.0358 32.7872 34.7777 37.0829 39.8216 43.1953 47.5903 53.9072 60 31.5081 33.1368 34.9928 37.1499 39.7251 42.9202 47.1319 53.3257 60 32.1474 33.7926 35.6392 37.7436 40.1896 43.1098 46.7337 51.5117 58.5418 60 32.8221 34.5501 36.4891 38.6979 41.2638 44.3251 48.12 53.1144 60 33.1778 34.6057 36.2087 38.0358 40.1601 42.6973 45.8476 50.0052 56.1341 60 33.9049 35.4791 37.2835 39.397 41.9481 45.1665 49.5299 56.3347 60 34.5679 36.138 37.9459 40.0765 42.6708 45.9885 50.5957 58.188 60 35.0552 36.4761 38.0862 39.9437 42.1387 44.8216 48.2733 53.1196 60 36.185 38.1137 40.265 42.6971 45.4946 48.7868 52.7872 57.8865 60 36.5736 38.2676 40.1773 42.3656 44.9281 48.0197 51.9172 57.1946 60 37.4549 39.4086 41.65 44.2786 47.4567 51.4766 56.9512 60 37.8844 39.5996 41.6517 44.2066 47.5932 52.6299 60 38.4407 39.9902 41.784 43.9138 46.5352 49.9454 54.8337 60 39.5829 41.6789 44.1489 47.1559 51.0004 56.3366 60 40.007 41.7078 43.6195 45.8019 48.3444 51.3899 55.1878 60 40.5941 42.2439 44.156 46.4299 49.2351 52.8983 58.1878 60 41.4076 43.1633 45.2265 47.7283 50.9069 55.2698 60 42.0238 43.6574 45.6322 48.1293 51.5287 56.8783 60 42.8907 44.5876 46.4953 48.6735 51.2119 54.2538 58.0495 60 43.4298 44.8908 46.561 48.5102 50.8508 53.7806 57.6995 60 44.1356 45.5251 47.0967 48.9054 51.0356 53.627 56.9359 60 45.0421 46.6505 48.5301 50.7913 53.6296 57.4444 60 45.8713 47.5409 49.4469 51.6676 54.328 57.6461 60 46.4303 47.8541 49.4847 51.3924 53.6914 56.5844 60 47.1334 48.5026 50.0932 51.9909 54.3434 57.4397 60 48.3032 50.0841 52.1143 54.4753 57.2962 60 48.8842 50.3821 52.0896 54.0751 56.4471 59.3933 60 49.8301 51.5608 53.6112 56.127 59.3832 60 50.7352 52.472 54.4292 56.6711 59.2946 60 51.3919 52.9381 54.6834 56.6866 59.0374 60 52.0308 53.4571 55.1015 57.0429 59.4128 60 53.2491 55.0932 57.2292 59.767 60 54.2498 56.2386 58.5486 60 54.7956 56.3436 58.0562 59.9727 60 55.8296 57.5378 59.4959 60 56.6277 58.1183 59.7944 60 57.5629 59.115 60 58.4507 59.937 60 59.399 60 60 60 0.16347 0.464559 0.735576 1.04986 1.05421 1.37003 1.6641 1.98358 1.98543 2.30673 2.31691 2.62581 2.95076 2.97185 3.29879 3.29916 3.628 3.6563 3.986 4.31562 4.64336 4.98009 4.99646 5.3353 5.36378 5.70482 5.71088 6.04205 6.38721 6.3908 6.73808 6.75786 7.10741 7.13725 7.48915 7.50428 7.85741 8.21381 8.26069 8.61964 8.62862 8.9899 9.00051 9.36417 9.38213 9.74825 9.75946 10.1023 10.4732 10.4743 10.8475 10.8581 11.2339 11.2677 11.6463 11.6686 12.0498 12.0664 12.4503 12.4577 12.8442 12.8662 13.2556 13.279 13.6599 14.0548 14.0677 14.4654 14.4754 14.8733 15.2767 15.314 15.7205 15.7555 16.1653 16.1914 16.6043 16.6287 17.018 17.437 17.4733 17.8956 17.9078 18.3301 18.7589 18.766 19.1981 19.2209 19.6434 20.0823 20.0972 20.533 20.9788 20.9842 21.3769 21.826 22.2731 22.7