<?xml version="1.0"?><VTKFile type="PolyData" version="0.1" byte_order="LittleEndian">
<PolyData>
<Piece NumberOfLines="5724" NumberOfPoints="5730">
<CellData Scalars=" CellData">
<DataArray type="Float32" Name="time" NumberOfComponents="1" format="ascii" >
0.203302 0.626429 0.632701 1.00397 1.3996 1.82444 2.25645 2.27939 2.70356 3.14047 3.16935 3.60888 3.61029 4.01164 4.45594 4.49635 4.93718 5.38678 5.38979 5.82346 6.2782 6.30374 6.76008 7.22032 7.23228 7.68115 8.14686 8.1481 8.6166 8.63516 9.1066 9.13216 9.60661 9.63108 10.104 10.5844 10.5909 11.0698 11.5215 12.0107 12.0445 12.5115 13.0069 13.0131 13.5041 14.0018 14.481 14.9664 15.4777 15.4906 15.985 16.5031 16.5185 17.0401 17.0504 17.5617 18.057 18.5752 19.0993 19.6166 20.1345 20.6682 21.2035 21.7404 22.2981 22.3421 22.9042 22.9202 23.4865 23.5059 24.0453 24.6197 24.6235 25.188 25.771 25.7853 26.3727 26.3737 26.9657 26.9883 27.577 28.1781 28.2572 28.8636 28.8834 29.4946 30.1107 30.149 30.7604 31.3866 31.4142 32.0457 32.1219 32.7591 32.7865 33.394 34.0417 34.0524 34.7056 34.7622 35.4214 35.4278 36.0927 36.0946 36.7331 37.4092 37.4678 38.1285 38.8169 38.8735 39.5685 39.5956 40.2557 40.9424 41.656 41.6621 42.3798 43.1067 43.1838 43.9183 43.9403 44.667 45.3712 46.1042 46.7896 47.5589 47.601 48.3784 48.4346 49.2203 49.2282 50.0033 50.805 50.8237 51.597 52.4154 52.4245 53.2516 53.2859 54.0867 54.9241 55.7385 56.6016 56.6028 57.4316 58.3137 58.3669 59.2424 60 9.69591 11.258 12.9998 14.9681 17.2308 19.8917 23.1214 27.2311 32.888 42.0166 60 10.1602 11.7265 13.4972 15.5339 17.931 20.8439 24.5572 29.685 38.0226 60 10.6512 12.2952 14.1394 16.2394 18.6777 21.5848 25.1847 29.9145 36.8263 49.8905 60 11.2403 13.0525 15.0884 17.411 20.1146 23.3492 27.3755 32.7113 40.6433 56.4742 60 11.2824 12.6052 14.0744 15.7263 17.613 19.8125 22.4495 25.7425 30.1297 36.7227 50.3811 60 12.0101 13.5968 15.3869 17.4402 19.8478 22.7579 26.4371 31.4442 39.3181 59.0464 60 12.3602 13.832 15.5227 17.5089 19.9163 22.9728 27.1634 33.8648 52.2624 60 12.937 14.4752 16.2432 18.3216 20.8433 24.0501 28.459 35.5548 55.8272 60 13.5282 15.1846 17.096 19.3555 22.1187 25.6766 30.6792 39.1801 60 14.0629 15.8094 17.8113 20.1565 22.9874 26.5593 31.4029 38.9605 57.1936 60 14.2505 15.5661 17.0279 18.6723 20.5518 22.7448 25.3773 28.6709 33.073 39.7323 53.8631 60 14.9494 16.4975 18.2241 20.1759 22.4205 25.0616 28.2699 32.3578 37.9972 47.1462 60 15.3436 16.8133 18.5176 20.5464 23.0526 26.3326 31.089 39.8765 60 15.8646 17.3748 19.125 21.2063 23.7738 27.1262 31.9658 40.7923 60 16.6741 18.4569 20.469 22.7782 25.4878 28.7662 32.9175 38.5823 47.5445 60 16.8877 18.346 20.0007 21.9132 24.1789 26.9586 30.556 35.6623 44.5543 60 17.3973 18.8502 20.523 22.4943 24.8943 27.9625 32.2214 39.2318 60 18.1265 19.8314 21.7883 24.0846 26.8635 30.3833 35.1887 42.7995 60 18.4205 19.8535 21.4796 23.3594 25.5867 28.3199 31.8585 36.885 45.6547 60 19.1448 20.7574 22.5607 24.6057 26.9675 29.7626 33.1865 37.6068 43.8528 54.601 60 19.4934 20.8739 22.417 24.166 26.1847 28.5715 31.4913 35.2528 40.547 49.5659 60 20.044 21.4194 22.9655 24.7307 26.7875 29.2517 32.3254 36.4132 42.5336 55.0491 60 20.8314 22.4878 24.3458 26.4616 28.9183 31.8473 35.4744 40.2402 47.2048 60 21.1277 22.5045 24.0485 25.806 27.8457 30.2758 33.2819 37.2251 42.9684 53.7176 60 22.1541 24.0618 26.1891 28.5932 31.3573 34.6083 38.5552 43.5796 50.5001 60 22.3831 23.9722 25.7313 27.7014 29.9401 32.5323 35.611 39.4019 44.3371 51.4212 60 22.6916 24.0107 25.5271 27.3104 29.4751 32.23 36.0227 42.146 60 23.5002 25.1289 26.9891 29.1577 31.7576 35.0042 39.3294 45.8287 59.2896 60 23.8807 25.2775 26.8415 28.6179 30.6739 33.1142 36.116 40.0177 45.6014 55.5403 60 24.4399 25.8765 27.5369 29.5042 31.9181 35.0428 39.48 47.2151 60 25.0416 26.5346 28.2805 30.3827 33.0252 36.5853 42.0621 54.4768 60 25.4637 26.7829 28.2732 29.9857 31.9986 34.4402 37.5436 41.8071 48.6566 60 26.097 27.5158 29.1292 30.9989 33.2223 35.9649 39.5458 44.7147 54.1386 60 27.2146 29.2297 31.5366 34.2345 37.4834 41.5678 47.0719 55.5439 60 27.3016 28.7671 30.4229 32.3263 34.5642 37.2802 40.7352 45.4885 53.1502 60 27.9467 29.4527 31.1512 33.0987 35.3808 38.1371 41.6176 46.344 53.7412 60 28.5902 30.1817 32.0415 34.2787 37.0865 40.8595 46.6318 59.4235 60 29.286 30.9872 32.9447 35.2497 38.0527 41.6298 46.5793 54.6645 60 29.7546 31.3375 33.1448 35.2505 37.7732 40.9199 45.1043 51.368 60 30.312 31.8717 33.6747 35.811 38.4325 41.8264 46.6474 55.0581 60 30.7297 32.0878 33.6636 35.5402 37.8604 40.901 45.3217 53.5513 60 31.4183 32.8321 34.3951 36.1426 38.1239 40.4114 43.1175 46.4304 50.7033 56.7305 60 31.9153 33.2858 34.8926 36.8343 39.2884 42.6263 47.8691 60 33.0189 34.9402 37.1712 39.8314 43.1261 47.456 53.7863 60 33.285 34.7914 36.5121 38.5184 40.9243 43.9299 47.9365 53.9652 60 34.1746 35.9482 37.9184 40.134 42.6652 45.6168 49.1572 53.5809 59.4811 60 34.7492 36.3994 38.2393 40.3182 42.7077 45.5171 48.9262 53.2622 59.2258 60 35.2978 36.8257 38.5375 40.4839 42.7393 45.4208 48.7277 53.0436 59.2684 60 35.9969 37.568 39.3509 41.412 43.8543 46.8515 50.7323 56.2462 60 36.662 38.3124 40.2322 42.5265 45.3781 49.1474 54.7217 60 37.1707 38.5793 40.1323 41.8626 43.8159 46.0586 48.6913 51.8789 55.9196 60 38.0014 39.696 41.7018 44.1591 47.3323 51.8182 59.5461 60 38.9744 40.993 43.3791 46.2971 50.0541 55.3366 60 39.3057 40.8405 42.5404 44.4451 46.6108 49.1206 52.1049 55.786 60 40.1084 41.7617 43.62 45.7412 48.2124 51.1721 54.8625 59.7666 60 40.611 42.0597 43.6829 45.5281 47.6662 50.2078 53.3414 57.4297 60 41.4001 42.8464 44.4659 46.3058 48.4357 50.9644 54.0764 58.1242 60 42.275 43.8853 45.6921 47.7499 50.1401 52.991 56.5237 60 42.9182 44.4704 46.2384 48.2922 50.7424 53.7795 57.776 60 43.8256 45.513 47.3988 49.5361 52.0024 54.9175 58.4823 60 44.4231 46.0302 47.8991 50.132 52.906 56.57 60 45.2769 46.9729 48.9267 51.2312 54.0402 57.6386 60 46.1881 48.0272 50.2277 52.9671 56.598 60 46.9063 48.5971 50.5054 52.6956 55.2654 58.3748 60 47.5065 49.111 50.983 53.2298 56.0401 59.7949 60 48.2166 49.7037 51.3762 53.2869 55.5152 58.188 60 49.2918 51.0699 53.1076 55.494 58.3736 60 49.8964 51.4323 53.14 55.0627 57.2626 59.8331 60 50.8284 52.5543 54.5192 56.8001 59.5184 60 51.4862 53.0825 54.8728 56.9107 59.276 60 52.3647 53.9544 55.7181 57.6985 59.9567 60 53.1324 54.744 56.5909 58.754 60 53.7844 55.0955 56.5485 58.178 60 55.1004 56.9403 59.0209 60 55.6814 57.292 59.1168 60 56.2234 57.5199 58.9868 60 57.408 59.0595 60 58.0624 59.4687 60 59.376 60 60 60 0.149456 0.44762 0.746139 1.05281 1.33755 1.64837 1.66154 1.95639 2.2711 2.27457 2.5913 2.59166 2.8706 3.19115 3.19379 3.51643 3.52313 3.84114 4.168 4.18057 4.50968 4.5114 4.84271 4.86222 5.19588 5.21392 5.54323 5.86195 6.20239 6.22236 6.54505 6.8902 6.8977 7.2453 7.25232 7.60241 7.60518 7.95777 7.97365 8.32564 8.68338 8.68744 9.04779 9.05145 9.41445 9.43864 9.80448 9.82406 10.1921 10.5574 10.9205 11.2953 11.6751 11.6934 12.0682 12.4502 12.8389 12.8696 13.2616 13.263 13.6472 14.0454 14.0858 14.4566 14.833 15.2408 15.2541 15.6654 15.6916 16.1066 16.116 16.5152 16.9004 17.3061 17.7348 17.7551 18.1865 18.6098 19.0498 19.0649 19.4993 19.9446 20.3854 20.8414 20.8515 21.3118 21.323 21.7878 21.7992 22.2684 22.307 22.7811 22.7843 23.2278 23.6802 24.1458 24.6252 25.122 25.1287 25.6305 25.6364 26.1195 26.6314 26.6711 27.146 27.6687 27.6956 28.2214 28.7555 28.7619 29.3018 29.3445 29.8869 30.4243 30.9827 31.0056 31.5705 31.5782 32.1443 32.7224 32.7468 33.3319 33.3685 33.961 33.9634 34.5589 35.118 35.7318 35.772 36.394 36.4185 37.0486 37.0513 37.6487 38.2946 38.2986 38.9354 39.556 40.215 40.8953 40.9022 41.592 41.6237 42.3236 42.3317 43.0377 43.7579 43.7902 44.4621 45.2033 45.208 45.9605 46.0179 46.7514 47.4492 48.2365 48.2427 49.0401 49.8532 49.865 50.623 51.4022 52.2551 52.3047 53.1732 53.1852 54.0694 54.1285 55.0297 55.0769 55.9956 55.9966 56.9194 57.873 57.9186 58.8917 58.9074 59.9002 59.9516 60 6.97076 8.41714 10.0517 11.9308 14.1408 16.8236 20.238 24.9394 32.5322 54.7241 60 7.66444 9.50724 11.5819 13.9554 16.7283 20.0631 24.2466 29.8641 38.4452 57.3459 60 7.55145 8.87945 10.3499 11.997 13.8692 16.0378 18.6147 21.7902 25.929 31.8836 42.6397 60 8.11541 9.69801 11.4674 13.4737 15.7904 18.5311 21.8869 26.2162 32.3254 42.8022 60 8.33919 9.83768 11.5431 13.522 15.8789 18.7934 22.6139 28.1711 38.5318 60 8.60114 9.9613 11.4746 13.1798 15.1329 17.4183 20.1729 23.6404 28.3236 35.567 52.3652 60 8.91078 10.2392 11.7057 13.3423 15.1937 17.3249 19.836 22.8922 26.7977 32.2146 41.1141 60 9.26983 10.6672 12.3097 14.3019 16.8341 20.3128 25.9008 41.6734 60 9.72592 11.1842 12.8194 14.6805 16.8399 19.412 22.5927 26.7621 32.8273 44.1376 60 9.97417 11.3661 12.9352 14.7335 16.8394 19.3804 22.5842 26.9238 33.6776 49.7806 60 10.5897 12.3 14.2849 16.6495 19.5745 23.4109 28.9973 39.4463 60 10.9633 12.6756 14.661 17.0234 19.9402 23.7543 29.276 39.4279 60 11.0678 12.4694 14.0619 15.9058 18.0956 20.7916 24.3007 29.3358 38.3631 60 12.109 14.2228 16.5892 19.2768 22.3869 26.0774 30.6159 36.512 44.9419 59.9086 60 12.0915 13.7986 15.7468 18.0157 20.7321 24.117 28.6108 35.3152 48.8591 60 12.3466 13.8719 15.5803 17.5217 19.77 22.4406 25.7298 30.0135 36.1669 47.2334 60 12.9126 14.6596 16.6675 19.0284 21.8933 25.5375 30.55 38.6262 60 13.2003 14.8189 16.633 18.6965 21.0891 23.936 27.4511 32.0475 38.702 50.9378 60 13.3837 14.8225 16.4596 18.3585 20.6192 23.4129 27.0707 32.3801 42.2159 60 13.7588 15.1713 16.7953 18.7055 21.0247 23.9774 28.0449 34.6215 53.9945 60 14.286 15.934 17.9154 20.4004 23.735 28.8225 39.9722 60 14.6676 16.21 17.9394 19.9076 22.1912 24.911 28.2738 32.681 39.0895 51.0253 60 14.9446 16.3568 17.9538 19.7915 21.9554 24.587 27.9458 32.5938 40.1894 60 15.6051 17.308 19.2363 21.4591 24.0828 27.2846 31.3932 37.1347 46.7415 60 15.7885 17.206 18.7819 20.556 22.5853 24.956 27.8064 31.3814 36.1796 43.502 59.5694 60 16.1603 17.5983 19.2754 21.2872 23.8016 27.1564 32.2132 42.8027 60 16.7809 18.4247 20.2951 22.4648 25.048 28.2406 32.4216 38.4923 49.7504 60 17.2601 18.9709 20.9117 23.1542 25.8098 29.0658 33.2756 39.2408 49.5798 60 17.6616 19.3283 21.2224 23.416 26.0219 29.232 33.4134 39.4225 50.2422 60 18.0134 19.5765 21.3485 23.394 25.813 28.7732 32.5884 37.963 47.1391 60 18.593 20.3381 22.3245 24.6301 27.3772 30.7761 35.2357 41.7343 53.9157 60 18.6445 19.9634 21.445 23.1355 25.1034 27.458 30.3895 34.2756 40.0556 51.6135 60 19.4632 21.3217 23.559 26.37 30.154 35.9655 49.0477 60 19.6434 21.1738 22.9598 25.1043 27.7883 31.3778 36.8151 48.4093 60 20.1309 21.6679 23.4219 25.4646 27.9099 30.9565 35.0001 41.0296 53.1883 60 20.55 22.0537 23.7433 25.671 27.9152 30.6009 33.945 38.3793 44.9787 58.2007 60 21.0074 22.5382 24.2704 26.2653 28.6171 31.4817 35.1471 40.2426 48.6607 60 21.7332 23.581 25.7449 28.3557 31.6474 36.1056 43.0426 59.5667 60 22.1607 23.9285 25.9274 28.2271 30.9344 34.2257 38.4241 44.2283 53.6911 60 22.5748 24.2845 26.1856 28.3263 30.7759 33.6387 37.0829 41.4068 47.2194 56.1202 60 22.8513 24.32 25.9734 27.8647 30.074 32.7305 36.062 40.5334 47.3563 60 23.4232 25.0393 26.8453 28.8921 31.2537 34.045 37.4578 41.8506 48.0238 58.4982 60 23.8615 25.4863 27.3131 29.3995 31.8316 34.7474 38.3881 43.2376 50.5228 60 24.3657 25.9857 27.7798 29.7902 32.0762 34.7254 37.8757 41.7617 46.8353 54.1586 60 24.9941 26.747 28.6927 30.8793 33.3747 36.2808 39.7599 44.095 49.8495 58.4327 60 25.2006 26.642 28.2511 30.0718 32.1686 34.6403 37.6508 41.5025 46.8559 55.6958 60 25.6819 27.1544 28.8194 30.7347 32.9892 35.7294 39.224 44.0526 51.9154 60 26.1527 27.6292 29.2737 31.1296 33.2591 35.7573 38.7792 42.6038 47.8187 56.0545 60 26.7361 28.3578 30.2018 32.339 34.8805 38.0159 42.1102 48.0218 58.8086 60 27.1519 28.6332 30.296 32.1909 34.3937 37.024 40.2886 44.5942 50.9334 60 27.6744 29.1774 30.8712 32.8117 35.0832 37.8221 41.2721 45.9369 53.1698 60 28.3043 29.9528 31.8102 33.937 36.4251 39.4228 43.1939 48.2818 56.1335 60 28.8473 30.4863 32.3109 34.3683 36.7268 39.49 42.8261 47.0364 52.7482 60 29.0911 30.4383 31.9452 33.6546 35.6296 37.9682 40.8353 44.5414 49.7911 58.8814 60 30.0565 31.8895 33.9413 36.2712 38.9665 42.1636 46.0932 51.1938 58.4745 60 30.5347 32.344 34.4057 36.8016 39.6615 43.2096 47.8853 54.7585 60 31.0635 32.8548 34.9106 37.3228 40.2414 43.937 48.9798 56.9574 60 31.3658 32.8425 34.505 36.4068 38.6284 41.2998 44.6505 49.1481 56.0134 60 31.9361 33.4258 35.117 37.0731 39.3927 42.2423 45.9383 51.2064 60 32.6147 34.196 36.007 38.1263 40.6808 43.8964 48.2398 54.9588 60 32.9968 34.3438 35.8562 37.5807 39.5863 41.9831 44.9614 48.897 54.7138 60 33.7279 35.2791 36.9975 38.9237 41.1149 43.6557 46.6795 50.4139 55.2989 60 34.4364 36.1805 38.1287 40.3352 42.8791 45.8826 49.5492 54.2571 60 35.0064 36.7956 38.8436 41.238 44.1205 47.7423 52.6186 60 35.3691 36.9105 38.667 40.7087 43.1463 46.1713 50.1598 56.0285 60 36.3074 38.2472 40.4998 43.1856 46.5123 50.8846 57.2776 60 36.4507 37.8226 39.37 41.1448 43.2253 45.7393 48.9163 53.2361 60 36.9512 38.2237 39.6531 41.2837 43.1815 45.4517 48.277 52.0197 57.5792 60 38.4994 40.7569 43.3087 46.2433 49.696 53.8899 59.2328 60 38.2113 39.4865 40.9065 42.5085 44.3459 46.5003 49.1042 52.3959 56.8747 60 38.8692 40.1441 41.5839 43.2377 45.1805 47.535 50.524 54.6209 60 39.9132 41.638 43.5914 45.8432 48.5013 51.7455 55.9095 60 40.5887 42.33 44.3062 46.5905 49.2971 52.6183 56.918 60 41.3376 43.0914 45.0488 47.2635 49.8133 52.8182 56.4766 60 41.9104 43.5581 45.3975 47.479 49.8763 52.7026 56.1455 60 42.4978 44.0759 45.8593 47.9098 50.3216 53.2499 56.978 60 43.5225 45.4586 47.6748 50.2661 53.3859 57.3065 60 43.8572 45.3815 47.1459 49.2407 51.8187 55.1718 59.9767 60 44.8835 46.767 48.9401 51.5084 54.6485 58.6899 60 45.3954 46.9491 48.6639 50.5771 52.7405 55.2296 58.1603 60 46.065 47.5237 49.1695 51.0572 53.2707 55.9461 59.3287 60 46.9755 48.5856 50.3629 52.346 54.5888 57.17 60 47.6837 49.2889 51.1211 53.2553 55.8111 58.997 60 48.3918 49.9718 51.7395 53.7456 56.0645 58.812 60 49.0226 50.4092 52.0006 53.868 56.1276 58.9895 60 50.0536 51.6404 53.4146 55.4265 57.7497 60 50.8605 52.4886 54.3742 56.6143 59.374 60 51.7025 53.3955 55.3259 57.5712 60 52.4428 54.0075 55.7645 57.7679 60 53.1717 54.6389 56.2972 58.2036 60 54.3439 56.2226 58.3499 60 54.9782 56.6338 58.5493 60 55.744 57.205 58.8339 60 56.8245 58.5636 60 57.651 59.1607 60 58.3948 59.6946 60 59.4077 60 60 0.193027 0.547584 0.599644 0.947844 1.30662 1.30892 1.6553 2.01047 2.37526 2.40171 2.75003 3.10788 3.4629 3.82677 4.20209 4.21117 4.5785 4.91727 5.29905 5.30761 5.69173 5.7092 6.09574 6.09621 6.4851 6.5162 6.89357 7.28734 7.29464 7.69089 7.71814 8.10108 8.50237 8.50874 8.9126 8.95377 9.36045 9.37609 9.7704 10.161 10.5282 10.9218 11.3381 11.7477 12.1385 12.566 12.594 13.0246 13.0272 13.4464 13.8683 14.276 14.7014 15.1166 15.5373 15.9803 16.4343 16.4478 16.8729 17.3333 17.3707 17.8347 17.8561 18.3237 18.3489 18.8141 19.2887 19.3022 19.7595 20.2166 20.7018 20.7278 21.2168 21.2248 21.7172 22.1914 22.6918 22.7164 23.221 23.2314 23.74 23.7541 24.2669 24.2767 24.7937 24.8669 25.3405 25.8662 25.8741 26.3857 26.9201 26.956 27.4952 27.5368 28.0809 28.1361 28.6678 29.2217 29.2308 29.7721 30.3357 30.3849 30.9538 30.982 31.5564 31.5694 32.1422 32.7203 33.2864 33.8768 34.4424 35.0488 35.0885 35.701 35.7109 36.2869 36.9111 36.9313 37.5618 37.5833 38.2203 38.2743 38.9183 38.9484 39.596 40.2534 40.2653 40.8903 41.5421 42.2093 42.8353 43.527 43.5413 44.2408 44.2461 44.9533 44.9965 45.7121 45.7393 46.4633 46.477 47.2095 47.2337 47.9459 48.6472 49.3674 50.1338 50.1471 50.923 50.9526 51.6551 52.4448 53.2492 53.2619 54.0767 54.0973 54.9229 54.9867 55.8239 55.8652 56.6987 57.554 58.3792 59.2622 59.2654 60 8.95205 10.4359 12.1153 14.0499 16.3314 19.1119 22.6726 27.6297 35.8485 60 9.24016 10.5276 11.9734 13.6222 15.5403 17.8332 20.684 24.4543 30.0363 41.029 60 9.71781 11.1172 12.7121 14.5665 16.7811 19.5308 23.1591 28.5067 38.8857 60 10.3559 12.0841 14.1643 16.7772 20.2935 25.6897 37.7996 60 10.7076 12.3257 14.1717 16.3208 18.8924 22.0941 26.3387 32.6532 45.2873 60 11.138 12.7638 14.5819 16.644 19.0256 21.8444 25.2979 29.7574 36.0616 46.9224 60 11.3996 12.8302 14.4344 16.2603 18.3791 20.9029 24.0244 28.1172 34.0736 45.1955 60 12.0809 13.8239 15.7684 17.9673 20.4974 23.4762 27.0982 31.7197 38.1117 48.5447 60 12.4809 14.2372 16.2215 18.502 21.183 24.4357 28.572 34.2585 43.4094 60 12.766 14.3753 16.1691 18.1952 20.5228 23.2578 26.5735 30.7849 36.5627 45.8162 60 13.4431 15.3575 17.5082 19.9618 22.818 26.2353 30.4893 36.1274 44.5103 60 13.4018 14.7615 16.2541 17.9082 19.7632 21.8746 24.325 27.2445 30.8559 35.593 42.4922 55.403 60 14.1195 15.86 17.8439 20.1504 22.9053 26.3261 30.8408 37.4968 50.4287 60 14.5505 16.3245 18.3189 20.5964 23.2509 26.4325 30.4037 35.6905 43.6229 59.9654 60 14.7812 16.3305 18.0878 20.1177 22.5206 25.465 29.2683 34.648 43.9297 60 15.3635 17.0525 18.9657 21.1717 23.7768 26.958 31.0445 36.7662 46.3855 60 15.8998 17.7055 19.7637 22.1565 25.0145 28.5631 33.246 40.1488 53.5525 60 16.0791 17.5442 19.2054 21.1235 23.3929 26.1715 29.7561 34.8147 43.49 60 16.5728 18.1029 19.8282 21.8061 24.1232 26.9205 30.4506 35.239 42.7155 60 17.0687 18.6609 20.4834 22.6141 25.1789 28.4013 32.7391 39.4007 54.3925 60 17.6745 19.3741 21.2754 23.4328 25.926 28.8794 32.502 37.1888 43.838 55.3995 60 18.3046 20.2613 22.5133 25.1659 28.3931 32.5148 38.2251 47.5823 60 18.3693 19.8826 21.6394 23.7336 26.3262 29.731 34.7018 44.0718 60 18.9296 20.4773 22.2379 24.2796 26.7094 29.7103 33.636 39.3243 49.8088 60 19.4831 21.0592 22.7841 24.6887 26.815 29.2214 31.9931 35.2611 39.2429 44.3399 51.431 60 20.1797 22.1071 24.3389 26.9899 30.2546 34.5057 40.6104 51.5799 60 20.2076 21.6031 23.1423 24.8584 26.7974 29.0258 31.6456 34.8241 38.8661 44.4232 53.3667 60 20.7997 22.4711 24.4493 26.8729 30.0023 34.4258 42.0451 60 21.4367 23.2402 25.2554 27.5385 30.1719 33.283 37.0843 41.9719 48.8267 60 21.8783 23.7095 25.8583 28.4587 31.7525 36.2491 43.371 60 22.1405 23.6547 25.3228 27.1797 29.2735 31.6739 34.486 37.8812 42.1661 47.9793 57.0585 60 22.5565 24.0947 25.8783 28.0007 30.6213 34.0484 39.0109 48.1403 60 23.1733 24.7737 26.5685 28.6117 30.9829 33.8083 37.304 41.8903 48.5731 60 23.6412 25.1926 26.9137 28.8463 31.0498 33.6126 36.6751 40.4808 45.5099 52.9432 60 24.22 25.8931 27.7742 29.9224 32.4261 35.4269 39.1723 44.1585 51.6394 60 24.704 26.4059 28.3677 30.6834 33.5092 37.1354 42.203 50.6824 60 25.44 27.4187 29.6671 32.2703 35.3616 39.1675 44.1206 51.2264 60 25.5316 27.0437 28.7372 30.6616 32.8903 35.5375 38.7979 43.0438 49.1425 60 26.2457 28.0268 30.0379 32.3476 35.0601 38.3462 42.5154 48.2241 57.3266 60 26.4491 27.9313 29.6325 31.6288 34.0445 37.1041 41.2807 47.8941 60 26.886 28.2671 29.8331 31.6414 33.7808 36.4006 39.7807 44.5515 52.7375 60 27.5916 29.1746 31.0009 33.1594 35.7982 39.1942 43.9651 52.0538 60 28.2241 29.9386 31.8816 34.1235 36.7733 40.013 44.183 50.0429 59.9851 60 28.5135 29.8832 31.4083 33.1288 35.1022 37.4159 40.2121 43.7468 48.5554 56.1118 60 29.3099 30.9707 32.8752 35.1076 37.8047 41.2122 45.8436 53.1065 60 29.5873 30.9074 32.4161 34.1763 36.2891 38.9318 42.4627 47.8004 59.0975 60 30.3615 31.919 33.6694 35.6672 37.9941 40.7803 44.2528 48.8642 55.7483 60 30.8699 32.3795 34.1094 36.135 38.5788 41.6593 45.8303 52.316 60 31.6185 33.3607 35.3477 37.66 40.4251 43.8649 48.4183 55.1723 60 32.1502 33.8702 35.8092 38.0312 40.6332 43.7725 47.7305 53.0905 60 32.7435 34.4528 36.3775 38.5799 41.154 44.251 48.1392 53.3668 60 33.3026 34.9717 36.8367 38.9498 41.3872 44.2668 47.7855 52.3103 58.6576 60 33.8299 35.4508 37.2778 39.371 41.8215 44.7769 48.5006 53.538 60 34.3101 35.8357 37.5469 39.4951 41.7567 44.4522 47.7886 52.1691 58.5609 60 34.8779 36.3363 37.961 39.7949 41.8999 44.3704 47.3605 51.1487 56.3223 60 35.7222 37.4573 39.4167 41.6671 44.3104 47.5133 51.5782 57.147 60 36.2126 37.778 39.5117 41.4544 43.6635 46.2237 49.2682 53.0241 57.9282 60 36.5552 37.8307 39.2655 40.9052 42.8181 45.1138 47.985 51.8202 57.6146 60 37.4418 38.9558 40.71 42.7949 45.3652 48.7174 53.5463 60 38.2823 40.0626 42.057 44.3244 46.9514 50.0741 53.9241 58.9462 60 38.7241 40.2953 42.0661 44.0948 46.4696 49.3334 52.9411 57.8201 60 39.2199 40.6839 42.3666 44.3451 46.7458 49.7994 53.9994 60 40.1662 41.9226 43.9346 46.2894 49.1284 52.7036 57.5356 60 40.481 41.781 43.2341 44.8813 46.7826 49.0311 51.7823 55.3277 60 41.316 42.7581 44.3928 46.2794 48.51 51.2388 54.7543 59.7022 60 41.918 43.3079 44.8706 46.6555 48.7362 51.2307 54.3455 58.4948 60 42.7024 44.2355 45.9986 48.0734 50.594 53.806 58.2384 60 43.5687 45.3077 47.2597 49.4844 52.0704 55.1582 58.9909 60 44.1978 45.7985 47.5781 49.5816 51.8734 54.5508 57.7702 60 44.984 46.676 48.5905 50.7949 53.3932 56.5573 60 45.9749 48.038 50.4687 53.4269 57.2069 60 46.1758 47.6555 49.3817 51.453 54.0427 57.5003 60 46.8491 48.2643 49.8744 51.7416 53.964 56.7094 60 47.5246 48.9448 50.5971 52.5726 55.0294 58.28 60 48.2931 49.7099 51.2815 53.046 55.0575 57.3964 60 49.0176 50.4855 52.1399 54.0351 56.2534 58.9279 60 49.7383 51.1402 52.7452 54.6224 56.8832 59.7258 60 50.5704 52.039 53.7123 55.6569 57.9782 60 51.3695 52.9292 54.6977 56.7397 59.1556 60 52.0639 53.508 55.1469 57.0418 59.2874 60 53.0141 54.6131 56.4257 58.5177 60 53.7858 55.2859 56.9878 58.9542 60 54.8643 56.6308 58.6376 60 55.5889 57.2694 59.1941 60 56.5012 58.2527 60 57.4096 59.2663 60 57.991 59.5894 60 58.633 60 59.4367 60 60 60 0.177183 0.530528 0.551289 0.90667 0.946773 1.30067 1.66017 1.66123 2.02273 2.02328 2.3868 2.39326 2.75638 3.09468 3.46423 3.46825 3.83992 3.84534 4.19974 4.56156 4.93953 4.97368 5.33864 5.72115 5.75594 6.12881 6.516 6.52969 6.91927 6.92532 7.29802 7.69224 7.71826 8.10793 8.49397 8.89549 8.89563 9.25336 9.62741 10.036 10.0749 10.4863 10.4908 10.9049 10.9214 11.3382 11.3555 11.7547 12.1589 12.5304 12.9284 13.3583 13.3739 13.8067 13.8105 14.2462 14.2474 14.6861 14.6955 15.1302 15.5711 15.9894 16.4059 16.8561 17.3127 17.3269 17.7706 18.2337 18.248 18.7145 18.7295 19.1995 19.2019 19.6753 19.7022 20.1793 20.2126 20.6934 20.7293 21.2139 21.248 21.7365 21.7646 22.2328 22.7288 22.7706 23.2707 23.3023 23.8039 24.312 24.3183 24.7968 25.2834 25.8032 25.8376 26.358 26.8865 26.9403 27.4735 27.533 28.0399 28.5437 29.0637 29.5993 30.1548 30.157 30.7169 31.2821 31.2892 31.8594 31.8746 32.4459 33.0263 33.0396 33.6253 33.6352 34.2263 34.2283 34.8249 34.8567 35.459 35.4753 36.0832 36.6605 37.2334 37.8582 37.8612 38.492 38.5305 39.1679 39.2372 39.8816 39.883 40.5333 41.1907 41.1919 41.8559 41.8574 42.5284 42.5962 43.246 43.9314 43.9839 44.6772 44.6879 45.3887 45.4614 46.1706 46.1814 46.8985 46.946 47.6717 47.7102 48.4326 49.1532 49.8856 50.6448 50.6642 51.4326 51.4671 52.1876 52.9743 52.9888 53.7131 54.5185 54.5767 55.3929 55.4246 56.2516 56.2813 57.1193 57.1685 58.0181 58.0276 58.8111 59.6768 60 9.35441 10.9987 12.8588 15.0003 17.5235 20.5947 24.5201 29.9659 38.9187 60 9.65697 11.1597 12.8469 14.7701 17.0063 19.6775 22.9951 27.3751 33.8366 46.4167 60 10.2616 11.9316 13.7937 15.898 18.3171 21.1618 24.6147 29.0088 35.0572 44.8189 60 10.4198 11.8373 13.4363 15.2701 17.42 20.0177 23.3007 27.7649 34.7732 52.1839 60 10.8812 12.3477 13.9855 15.8399 17.9771 20.4993 23.5761 27.5224 33.0319 42.2296 60 11.4221 13.0503 14.8909 17.0077 19.4985 22.5243 26.3799 31.6996 40.3322 60 11.8611 13.4844 15.2808 17.2915 19.5747 22.216 25.349 29.1996 34.1974 41.3305 53.9343 60 12.0653 13.4779 15.0625 16.8667 18.9613 21.4581 24.5493 28.6092 34.5373 45.7158 60 12.5298 14.0213 15.6784 17.5422 19.6718 22.1559 25.1366 28.8633 33.8386 41.3473 57.1431 60 13.028 14.6293 16.4462 18.5458 21.0328 24.0831 28.029 33.6256 43.351 60 13.6153 15.4194 17.502 19.965 22.9792 26.8646 32.3391 41.6908 60 13.8914 15.5364 17.4108 19.5892 22.1895 25.4155 29.667 35.9171 47.9507 60 14.3086 15.9447 17.7858 19.8907 22.3478 25.2991 28.9949 33.9422 41.4504 57.5763 60 15.0591 16.9939 19.1498 21.5842 24.3796 27.6622 31.6383 36.6817 43.5846 54.5802 60 15.0712 16.5844 18.3025 20.2898 22.6466 25.5422 29.2988 34.6553 44.0966 60 15.6135 17.1902 18.9631 20.988 23.3486 26.1789 29.7132 34.4222 41.4992 56.1649 60 16 17.544 19.2939 21.3131 23.6999 26.6185 30.376 35.658 44.6284 60 16.6204 18.3367 20.2669 22.4719 25.043 28.1267 31.9795 37.1172 44.8522 60 16.9697 18.5575 20.3218 22.3068 24.5758 27.2239 30.4037 34.3834 39.7063 47.7701 60 17.3269 18.8378 20.5143 22.3971 24.5445 27.0428 30.0298 33.7442 38.6586 45.9396 60 17.9416 19.612 21.4814 23.6036 26.0579 28.9678 32.5419 37.176 43.7771 55.3794 60 18.0505 19.386 20.9359 22.7826 25.0671 28.064 32.4298 40.605 60 18.9281 20.7366 22.8008 25.2055 28.0854 31.6758 36.4463 43.5752 58.0587 60 19.0063 20.3642 21.8841 23.6098 25.606 27.9736 30.8829 34.6578 40.0427 49.5433 60 19.4813 20.9269 22.5673 24.4634 26.7098 29.4659 33.0333 38.0984 46.9244 60 20.0872 21.7324 23.602 25.7669 28.3383 31.5052 35.629 41.5511 52.1939 60 20.5621 22.1731 24.0181 26.1765 28.7773 32.0497 36.466 43.2853 58.987 60 20.8996 22.3369 23.9603 25.8256 28.0176 30.6754 34.0521 38.6868 46.1173 60 21.5501 23.1496 24.9418 26.9794 29.3406 32.1478 35.6097 40.1277 46.6436 58.4948 60 22.1014 23.7497 25.5854 27.6566 30.0325 32.8188 36.1874 40.4477 46.2487 55.3827 60 22.4754 24.0403 25.799 27.8063 30.1445 32.9444 36.4346 41.0705 47.9945 60 22.7792 24.1442 25.6519 27.3356 29.2421 31.4391 34.0318 37.1943 41.25 46.911 56.3563 60 23.3444 24.8937 26.6543 28.6934 31.1158 34.0999 37.9872 43.5741 53.6364 60 23.8725 25.5059 27.3743 29.5566 32.1804 35.4705 39.885 46.6175 60 24.4569 26.2125 28.2904 30.8364 34.1244 38.7734 46.7868 60 24.9626 26.6546 28.5627 30.7504 33.3139 36.4096 40.3181 45.6241 53.9232 60 25.4679 27.1698 29.1058 31.3507 34.022 37.3206 41.6349 47.883 59.3833 60 25.8585 27.4406 29.2782 31.4703 34.187 37.7612 42.9978 52.9751 60 26.2522 27.6979 29.3633 31.3272 33.7206 36.7855 41.0521 48.1246 60 26.8782 28.4192 30.1474 32.1147 34.3982 37.1192 40.486 44.9041 51.3439 60 27.3115 28.8085 30.51 32.4809 34.8229 37.7088 41.4702 46.8816 56.6553 60 27.7877 29.2556 30.8979 32.7617 34.9161 37.4688 40.6013 44.6569 50.4179 60 28.5931 30.4207 32.5396 35.0606 38.1729 42.2417 48.1295 58.941 60 29.0228 30.7056 32.645 34.9334 37.7247 41.3041 46.2994 54.6307 60 29.342 30.7761 32.3964 34.2586 36.4476 39.1033 42.48 47.1214 54.5874 60 29.976 31.5161 33.2895 35.3798 37.9252 41.1807 45.703 53.1603 60 30.6165 32.2078 33.9908 36.0181 38.3675 41.1609 44.6062 49.1035 55.5923 60 31.0028 32.4267 34.0499 35.9371 38.1915 40.9911 44.6869 50.138 60 31.7443 33.346 35.1804 37.3267 39.9131 43.168 47.5621 54.3518 60 32.5133 34.2723 36.241 38.4766 41.0628 44.1305 47.9008 52.7943 59.7786 60 32.9489 34.5381 36.3491 38.4542 40.9675 44.0866 48.1993 54.2515 60 33.6951 35.4018 37.3012 39.4423 41.896 44.7692 48.2357 52.6058 58.5236 60 34.0585 35.4956 37.0993 38.9133 41.0012 43.4608 46.4536 50.2766 55.5751 60 34.5395 35.899 37.4207 39.1486 41.1476 43.5189 46.4336 50.2171 55.6185 60 35.2671 36.7442 38.4236 40.3698 42.6836 45.5372 49.2616 54.6339 60 35.9345 37.4372 39.1254 41.0514 43.2931 45.9749 49.3129 53.7358 60 36.5053 37.9854 39.6564 41.5751 43.8279 46.5562 50.0161 54.7494 60 37.1243 38.6041 40.2648 42.1569 44.3553 46.9791 50.233 54.5188 60 38.0021 39.8608 42.0036 44.5333 47.621 51.5847 57.1272 60 38.381 40.0053 41.8699 44.0584 46.7075 50.0642 54.6501 60 38.9086 40.3519 41.9689 43.8072 45.9371 48.4691 51.5911 55.664 60 39.7298 41.4088 43.3143 45.5169 48.1268 51.3295 55.4762 60 40.3232 41.8609 43.5737 45.5068 47.7254 50.3285 53.478 57.4661 60 41.0644 42.6763 44.5346 46.7286 49.4065 52.8445 57.6526 60 41.6833 43.2736 45.0623 47.1059 49.4895 52.3491 55.9238 60 42.3033 43.9304 45.7946 47.9771 50.6092 53.9258 58.4126 60 42.7993 44.2564 45.8966 47.7725 49.9634 52.5967 55.8979 60 43.7207 45.5043 47.5456 49.9317 52.8032 56.4093 60 44.1173 45.5828 47.2555 49.2038 51.5367 54.4444 58.3061 60 44.8071 46.2738 47.9346 49.8485 52.1071 54.8622 58.3955 60 45.632 47.2321 49.0302 51.0821 53.4717 56.3321 59.8959 60 46.2842 47.8776 49.7634 52.0736 55.0563 59.2717 60 47.0229 48.5985 50.3675 52.3844 54.7299 57.5325 60 47.8885 49.6223 51.5757 53.8128 56.4298 59.583 60 48.5504 50.2361 52.1774 54.4661 57.2541 60 49.3214 51.1132 53.2727 55.991 59.6622 60 50.1599 51.9477 53.9806 56.3368 59.1388 60 50.7254 52.2623 53.9703 55.8925 58.0905 60 51.688 53.4618 55.4413 57.6805 60 52.1836 53.768 55.6169 57.8364 60 53.1601 54.9757 56.993 59.2627 60 53.6396 55.1605 56.9058 58.9531 60 54.4786 55.9715 57.6403 59.5319 60 55.5139 57.1656 59.0017 60 56.1238 57.5547 59.1459 60 57.1308 58.8267 60 57.7164 59.1007 60 58.8805 60 59.6825 60 60 0.197683 0.60707 0.640374 1.04673 1.46052 1.48685 1.87306 2.29118 2.31674 2.73483 3.15472 3.57694 4.00413 4.00562 4.43512 4.47406 4.90611 4.91186 5.34629 5.3676 5.77108 6.19148 6.63297 6.63969 7.03047 7.43858 7.87939 8.33037 8.36029 8.77621 9.23232 9.23304 9.69178 9.72386 10.1854 10.1884 10.6527 10.6683 11.113 11.5827 11.584 12.0208 12.4959 12.5101 12.9882 13.0038 13.4822 13.8836 14.3423 14.8177 15.3099 15.325 15.802 16.3004 16.3126 16.8142 16.8273 17.3094 17.8154 18.3184 18.8121 19.268 19.7886 19.7944 20.3184 20.322 20.8496 20.8885 21.4168 21.9517 21.9674 22.4844 23.0265 23.0993 23.6421 24.1922 24.2079 24.7619 24.7977 25.3349 25.8899 26.4537 27.0237 27.0273 27.6013 27.6162 28.1853 28.7678 28.7957 29.3828 29.4044 29.9749 30.5419 31.1168 31.7051 32.3066 32.908 33.4988 34.1217 34.1728 34.801 34.81 35.4433 35.4545 36.085 36.7285 36.7566 37.3754 37.9973 38.6336 39.2726 39.9383 40.5628 41.2438 41.2444 41.9004 42.5743 43.2727 43.2752 43.9764 44.6873 44.7118 45.4293 45.4715 46.1796 46.9106 46.9415 47.6796 47.7697 48.427 49.179 49.1814 49.9406 49.9611 50.7278 50.7695 51.5441 51.5645 52.3146 53.0928 53.8905 53.9316 54.7377 54.7629 55.5776 55.5824 56.4056 56.4083 57.2401 57.2401 58.077 58.9265 58.9678 59.8268 59.8711 60 9.72368 11.4774 13.5091 15.9237 18.8999 22.7807 28.3685 38.4849 60 10.1199 11.7457 13.597 15.7463 18.3086 21.4811 25.6484 31.7351 43.2232 60 10.6107 12.2965 14.2365 16.5209 19.2993 22.8457 27.7543 35.7792 60 11.0491 12.6872 14.5837 16.8355 19.6072 23.2134 28.3841 37.6355 60 11.3505 12.7884 14.3742 16.1418 18.1382 20.4318 23.1267 26.3937 30.5431 36.2353 45.35 60 11.9801 13.6003 15.4308 17.5346 20.0077 23.0081 26.8233 32.0676 40.5046 60 12.6721 14.5375 16.6322 19.0204 21.7978 25.1168 29.2407 34.6895 42.7409 5