<?xml version="1.0"?><VTKFile type="PolyData" version="0.1" byte_order="LittleEndian">
<PolyData>
<Piece NumberOfLines="13409" NumberOfPoints="13415">
<CellData Scalars=" CellData">
<DataArray type="Float32" Name="time" NumberOfComponents="1" format="ascii" >
0.180022 0.32468 0.450173 0.578367 0.704853 0.84764 0.976483 1.11626 1.25243 1.39408 1.53459 1.68349 1.81012 1.96256 2.11127 2.25255 2.39167 2.52639 2.6624 2.80631 2.93785 3.0845 3.22239 3.3613 3.50726 3.65769 3.79721 3.93577 4.07352 4.2203 4.35423 4.50131 4.64946 4.79926 4.95865 5.10418 5.24833 5.38927 5.54118 5.69381 5.85005 6.00274 6.1382 6.28254 6.44636 6.5966 6.73663 6.88701 7.04008 7.20189 7.35449 7.50419 7.65458 7.80705 7.97716 8.13757 8.29791 8.45062 8.60377 8.76295 8.91911 9.08941 9.23972 9.39971 9.56754 9.72107 9.89223 10.0417 10.196 10.354 10.5209 10.6818 10.8472 10.9984 11.1775 11.3428 11.51 11.6623 11.8273 11.973 12.1511 12.3232 12.4854 12.6652 12.8331 13.0063 13.175 13.339 13.4988 13.6592 13.8314 14.0105 14.1725 14.3539 14.5351 14.7145 14.8814 15.0728 15.2574 15.4388 15.6094 15.7848 15.951 16.1296 16.3096 16.4796 16.6588 16.8413 17.0143 17.2108 17.3867 17.5729 17.759 17.9374 18.1002 18.3028 18.4901 18.6644 18.8425 19.0249 19.2131 19.3886 19.5679 19.7386 19.9477 20.1428 20.3386 20.5271 20.7142 20.9064 21.1028 21.289 21.4932 21.6737 21.8599 22.0679 22.2692 22.4588 22.6502 22.8405 23.0364 23.2377 23.434 23.6504 23.8393 24.0372 24.2417 24.4386 24.6428 24.8429 25.0629 25.2584 25.467 25.6654 25.8764 26.0851 26.3057 26.502 26.7109 26.9297 27.127 27.3262 27.5482 27.7551 27.9783 28.1949 28.4023 28.6176 28.8489 29.0478 29.2659 29.4868 29.7188 29.9325 30.1337 30.3646 30.5862 30.8043 31.0625 31.2924 31.487 31.7124 31.953 32.1776 32.4119 32.6444 32.874 33.1191 33.3623 33.6044 33.8486 34.0628 34.3136 34.5571 34.8098 35.0321 35.2853 35.53 35.7765 36.0058 36.2415 36.4937 36.7226 36.9848 37.2208 37.4729 37.7513 38.0167 38.2834 38.5453 38.8051 39.0403 39.3233 39.5974 39.8535 40.1185 40.3832 40.6563 40.9223 41.182 41.433 41.6898 41.9467 42.2085 42.4992 42.7822 43.0552 43.3518 43.6493 43.947 44.2137 44.5143 44.7802 45.0441 45.343 45.6425 45.9144 46.2031 46.4789 46.7982 47.0932 47.4279 47.7535 48.0673 48.3432 48.6346 48.9252 49.218 49.5266 49.8256 50.1154 50.4445 50.744 51.0375 51.3747 51.6828 52.0319 52.3531 52.7006 53.0384 53.3555 53.6662 53.9931 54.2952 54.6408 54.9798 55.3477 55.675 56.0134 56.3558 56.6891 57.0442 57.3939 57.7854 58.1166 58.4554 58.849 59.2055 59.5282 59.8662 60 7.77868 9.62063 11.7156 14.1444 17.0338 20.6006 25.2628 32.0072 44.3807 60 7.71026 9.30424 11.1282 13.2598 15.8243 19.0437 23.3714 29.9978 44.7306 60 7.64916 9.00712 10.5445 12.3161 14.4062 16.9552 20.2227 24.7803 32.3709 60 7.88494 9.34696 11.0003 12.9027 15.1426 17.8664 21.3423 26.151 34.0039 58.9064 60 8.36644 10.2071 12.2845 14.6686 17.4662 20.8511 25.1374 30.9867 40.2421 60 8.21204 9.72459 11.4601 13.496 15.9584 19.0747 23.3227 30.0283 47.1568 60 8.46319 10.1 11.98 14.1885 16.865 20.2626 24.9195 32.3612 52.7058 60 8.42461 9.83042 11.4261 13.271 15.4577 18.1423 21.6205 26.568 35.2315 60 8.90854 10.6733 12.6562 14.9188 17.5532 20.7061 24.633 29.8417 37.599 53.1768 60 8.7486 10.1551 11.7255 13.5033 15.5516 17.9677 20.9135 24.6882 29.9492 38.6955 60 8.95414 10.4525 12.1787 14.2144 16.6956 19.8735 24.299 31.6408 58.6307 60 9.302 10.9565 12.7903 14.8471 17.1888 19.9072 23.147 27.1571 32.4218 40.103 54.5539 60 9.41316 11.1314 13.183 15.7291 19.0865 24.0278 33.5755 60 9.39504 10.8394 12.4775 14.3696 16.6092 19.3532 22.897 27.9076 36.5444 60 9.57668 11.0206 12.6308 14.4506 16.543 19.0042 21.9926 25.7974 31.0397 39.5188 60 9.78404 11.3262 13.1074 15.2154 17.7979 21.1322 25.8448 33.959 60 10.0493 11.6886 13.5395 15.6648 18.1603 21.1827 25.0158 30.2606 38.6097 60 10.4183 12.3398 14.5649 17.2077 20.4623 24.6999 30.7844 41.7138 60 10.1726 11.603 13.2009 15.0109 17.0978 19.5621 22.571 26.4357 31.8452 40.9336 60 10.3246 11.7406 13.314 15.0842 17.1074 19.4684 22.3029 25.8498 30.5918 37.7696 53.0351 60 10.4855 11.9402 13.5872 15.4853 17.7249 20.4565 23.9592 28.8472 36.9976 60 10.5628 11.9045 13.3989 15.0852 17.0201 19.2898 22.0349 25.5087 30.2437 37.7166 56.7844 60 10.9157 12.4889 14.256 16.272 18.6184 21.4253 24.9185 29.5464 36.4215 50.1135 60 10.9235 12.3597 14.0101 15.9499 18.3026 21.2931 25.4009 31.999 50.6076 60 11.4375 13.2638 15.351 17.7863 20.7096 24.3665 29.2533 36.6431 52.3034 60 11.4272 13.0304 14.8286 16.876 19.2529 22.086 25.5932 30.1988 36.9216 49.5874 60 11.6045 13.2295 15.048 17.1121 19.4989 22.3282 25.8024 30.305 36.7134 47.952 60 11.6922 13.2709 15.0764 17.1846 19.718 22.8926 27.1471 33.6196 47.65 60 11.7671 13.2284 14.8575 16.6979 18.8129 21.2988 24.3141 28.1471 33.4132 41.875 60 11.8629 13.2717 14.8729 16.7275 18.9311 21.6463 25.1847 30.2739 39.4588 60 12.1533 13.7061 15.4503 17.4398 19.7551 22.524 25.9689 30.5301 37.2983 50.726 60 12.3256 13.8856 15.6341 17.623 19.929 22.6728 26.0606 30.4905 36.9035 48.6933 60 12.3385 13.7521 15.3679 17.2533 19.5168 22.3491 26.1356 31.8663 44.0488 60 12.6207 14.1698 15.9479 18.0349 20.5609 23.7615 28.1335 35.0667 53.2161 60 12.9995 14.7435 16.6986 18.9233 21.5039 24.5763 28.3733 33.3457 40.5648 53.9491 60 13.1651 14.942 16.9757 19.3532 22.2149 25.8098 30.648 38.0747 54.7569 60 13.1517 14.6975 16.417 18.3543 20.5727 23.1677 26.294 30.2266 35.5316 43.7155 60 13.1639 14.5604 16.1274 17.9126 19.9866 22.4613 25.5296 29.569 35.495 46.8316 60 13.4369 14.959 16.682 18.6669 21.008 23.8618 27.5175 32.6098 41.0643 60 13.6443 15.2005 16.951 18.9513 21.2848 24.085 27.5866 32.2626 39.3236 54.2081 60 13.8134 15.3974 17.2279 19.3961 22.0555 25.4958 30.3757 38.8573 60 14.2273 16.0664 18.1601 20.5903 23.4865 27.0707 31.7749 38.6352 51.5222 60 14.1658 15.7819 17.6446 19.8429 22.5247 25.9647 30.7681 38.7901 60 14.1175 15.5001 17.0986 18.993 21.3184 24.3306 28.6136 36.1051 60 14.2439 15.5447 17.022 18.7313 20.7594 23.2529 26.4913 31.1188 39.3213 60 14.8082 16.5432 18.4994 20.7414 23.3675 26.537 30.5349 35.9537 44.4001 60 14.8275 16.4282 18.2591 20.3979 22.9694 26.1943 30.5221 37.1249 51.597 60 14.9994 16.5477 18.2413 20.1101 22.1949 24.5519 27.2632 30.4544 34.3329 39.2781 46.1094 57.2256 60 15.1857 16.7771 18.5531 20.5624 22.8756 25.6012 28.919 33.1598 39.0439 48.7203 60 15.4289 17.1014 18.9849 21.1404 23.6598 26.6917 30.4992 35.6206 43.4726 60 15.6688 17.3923 19.2973 21.4267 23.8404 26.6262 29.9201 33.9498 39.1414 46.4493 58.902 60 15.7547 17.4352 19.3584 21.6067 24.3125 27.711 32.2835 39.2979 55.0135 60 15.8038 17.3912 19.2719 21.5795 24.5663 28.8074 36.1987 60 15.8715 17.2596 18.7893 20.4927 22.4143 24.6184 27.2027 30.3262 34.2749 39.6477 48.0936 60 16.1521 17.6985 19.4885 21.6139 24.2297 27.6326 32.5101 41.2295 60 16.4291 18.0285 19.7987 21.7806 24.0318 26.6372 29.7294 33.533 38.4766 45.5506 58.1377 60 16.5953 18.2109 20.042 22.1551 24.6531 27.7083 31.6426 37.176 46.5851 60 16.6874 18.2042 19.9082 21.8522 24.115 26.8221 30.1917 34.657 41.2941 54.535 60 17.0607 18.8806 21.0484 23.7289 27.2426 32.3535 41.882 60 16.8633 18.1933 19.696 21.423 23.4533 25.9166 29.049 33.3554 40.2856 60 17.6736 19.7588 22.1849 25.0856 28.6929 33.4658 40.5385 54.5067 60 17.6601 19.4657 21.4985 23.8242 26.5415 29.8097 33.9103 39.4177 47.8351 60 17.5874 19.112 20.8111 22.7295 24.9327 27.5199 30.654 34.6298 40.0727 48.7469 60 17.8738 19.5665 21.5262 23.8532 26.7175 30.4443 35.7882 45.3518 60 18.056 19.7893 21.8734 24.487 27.9946 33.3463 45.0791 60 18.1559 19.7271 21.4985 23.5289 25.9072 28.7777 32.3988 37.3074 44.9606 60 18.2972 19.8178 21.5409 23.529 25.8784 28.7506 32.4466 37.6379 46.4355 60 18.5548 20.1725 22.0012 24.1041 26.5784 29.5839 33.4129 38.6943 47.2584 60 18.4613 19.7926 21.3133 23.0864 25.2128 27.8692 31.4107 36.7402 47.8358 60 18.6958 20.1042 21.7325 23.6625 26.0318 29.1012 33.4669 41.1091 60 19.1069 20.7063 22.4681 24.4293 26.6406 29.1753 32.1445 35.7287 40.2509 46.383 55.9505 60 19.4443 21.2743 23.3753 25.8419 28.8287 32.6154 37.7936 46.0255 60 19.2599 20.7281 22.5059 24.7596 27.8412 32.7391 45.719 60 19.6399 21.2882 23.1797 25.399 28.0839 31.483 36.1198 43.4505 60 19.6595 21.0981 22.7423 24.6611 26.9647 29.8473 33.7014 39.5357 51.9483 60 19.911 21.4192 23.1374 25.1336 27.5156 30.4689 34.3572 40.0622 50.98 60 20.1428 21.6929 23.4484 25.4724 27.8618 30.7786 34.5234 39.761 48.5439 60 20.3337 21.9603 23.8879 26.2539 29.3182 33.674 41.2876 60 20.8239 22.707 24.8005 27.1572 29.853 33.0023 36.7889 41.538 47.9122 57.6401 60 20.5189 21.9176 23.5181 25.3888 27.6395 30.4653 34.2647 40.0848 53.0486 60 20.9537 22.5668 24.3452 26.3264 28.5628 31.1301 34.1434 37.791 42.4129 48.7274 58.7449 60 21.2257 22.9796 24.9927 27.3549 30.2134 33.8336 38.775 46.5983 60 21.1617 22.6801 24.4917 26.7375 29.6935 34.0283 42.3107 60 21.5477 23.2151 25.1076 27.2958 29.8895 33.0737 37.1995 43.0686 53.348 60 21.9171 23.8034 25.9704 28.5167 31.6036 35.5245 40.9039 49.5196 60 21.8949 23.5309 25.4043 27.5958 30.236 33.5572 38.0376 44.9499 60 22.0393 23.6306 25.4634 27.6246 30.2581 33.6295 38.3209 46.0896 60 22.296 23.9445 25.8094 27.9559 30.4848 33.5621 37.4939 42.9449 51.8919 60 22.4683 24.1115 25.9761 28.1309 30.6835 33.8147 37.8659 43.614 53.6118 60 22.6611 24.2823 26.0739 28.0761 30.3451 32.963 36.0571 39.8398 44.7082 51.5481 60 22.7778 24.3261 26.0544 28.0103 30.263 32.9188 36.1542 40.295 46.0535 55.5755 60 22.9405 24.4595 26.1763 28.1503 30.4723 33.2917 36.8816 41.8283 49.8309 60 22.994 24.3587 25.8876 27.6258 29.6399 32.0342 34.9865 38.8384 44.3914 54.4779 60 23.1903 24.5395 26.044 27.7441 29.6986 31.997 34.7868 38.3372 43.2245 51.1132 60 23.6818 25.3688 27.281 29.4879 32.0973 35.2894 39.4015 45.1892 55.0479 60 23.6356 25.0455 26.6463 28.498 30.694 33.3924 36.8935 41.8867 50.6926 60 23.9199 25.4442 27.1866 29.2202 31.6622 34.7188 38.8077 45.0038 58.2377 60 24.2275 25.815 27.5756 29.5521 31.8046 34.4231 37.5501 41.4317 46.5521 54.0936 60 24.2936 25.7441 27.3816 29.2615 31.4684 34.1405 37.5277 42.1586 49.5163 60 24.5056 25.9767 27.6578 29.6188 31.9722 34.9151 38.8454 44.7809 57.2991 60 24.9478 26.6942 28.6836 30.995 33.7529 37.1723 41.6741 48.2786 60 24.8791 26.3101 27.9194 29.7578 31.9018 34.4732 37.6864 41.972 48.4267 60 25.1329 26.6271 28.2952 30.1831 32.3578 34.9222 38.047 42.048 47.6162 56.8405 60 25.3787 27.0136 28.9866 31.4753 34.8484 40.1055 52.7206 60 25.5565 27.1084 28.8996 31.0178 33.6095 36.9496 41.6536 49.6797 60 25.9365 27.6704 29.629 31.8795 34.5241 37.731 41.8058 47.3997 56.372 60 25.9026 27.3627 29.0002 30.864 33.0271 35.6043 38.7925 42.9745 49.0659 60 26.2539 27.8912 29.7533 31.912 34.48 37.6498 41.7925 47.7839 58.7682 60 26.4026 27.9791 29.7625 31.8156 34.2349 37.1796 40.9435 46.1654 54.7515 60 26.4977 27.9403 29.587 31.505 33.8018 36.6648 40.4678 46.148 57.6674 60 26.934 28.684 30.7477 33.2624 36.4822 40.9636 48.388 60 27.0204 28.5829 30.3613 32.4253 34.8843 37.9261 41.9159 47.7262 58.5973 60 27.1754 28.6956 30.4592 32.5594 35.1554 38.5566 43.4985 52.6831 60 27.5625 29.2274 31.0688 33.1285 35.4656 38.1664 41.3654 45.2888 50.3641 57.5619 60 27.724 29.3738 31.2144 33.2959 35.6908 38.5108 41.9398 46.3155 52.3687 60 27.8707 29.4521 31.2527 33.343 35.8344 38.9185 42.968 48.8783 60 27.9672 29.4101 31.0433 32.925 35.1444 37.8497 41.3154 46.1433 54.1601 60 28.2518 29.7962 31.5536 33.5921 36.0193 39.0191 42.9478 48.6528 59.2354 60 28.4362 29.9634 31.7077 33.741 36.1788 39.2229 43.2781 49.3714 60 28.5388 29.914 31.4393 33.1517 35.1034 37.3725 40.0825 43.4473 47.8874 54.4315 60 28.7354 30.0985 31.6222 33.3495 35.3435 37.7017 40.5875 44.3073 49.5484 58.5003 60 28.9764 30.4084 32.0447 33.9535 36.2443 39.1089 42.9346 48.7123 60 29.2766 30.7921 32.4914 34.4253 36.6692 39.3416 42.6459 46.9765 53.2737 60 29.5838 31.2576 33.1854 35.4585 38.2279 41.7728 46.7041 54.864 60 29.7476 31.3369 33.1696 35.3342 37.9779 41.3749 46.1337 54.1446 60 30.029 31.6793 33.5763 35.8069 38.514 41.9581 46.697 54.3382 60 30.4714 32.3108 34.3457 36.623 39.208 42.1972 45.7409 50.0928 55.7337 60 30.286 31.7093 33.3188 35.1702 37.3497 39.9989 43.3776 48.047 55.6532 60 30.7324 32.4372 34.3993 36.7102 39.5216 43.1117 48.0846 56.2294 60 30.8091 32.3199 34.0144 35.9434 38.1826 40.8512 44.1538 48.4889 54.8115 60 31.1774 32.8608 34.77 36.9753 39.5854 42.7834 46.9133 52.7526 60 31.4066 33.1174 35.0737 37.358 40.1027 43.5416 48.1493 55.1553 60 31.8963 33.8829 36.1387 38.7484 41.8441 45.649 50.5879 57.6381 60 31.6883 33.1791 34.8301 36.6802 38.784 41.2222 44.1217 47.6988 52.3697 59.1136 60 31.7868 33.1887 34.7967 36.6819 38.9603 41.8404 45.7584 51.9149 60 32.1539 33.6843 35.4175 37.4159 39.7755 42.6562 46.3554 51.5315 60 32.4899 34.118 35.9367 37.9968 40.372 43.1767 46.6011 50.9992 57.1548 60 32.6082 34.1589 35.9401 38.0328 40.5692 43.7897 48.2053 55.267 60 32.7424 34.1578 35.7313 37.5028 39.5294 41.8972 44.7446 48.3167 53.1131 60 32.9173 34.2847 35.8069 37.5235 39.4915 41.7973 44.5816 48.0962 52.8658 60 33.4548 35.2042 37.2083 39.5538 42.3817 45.9431 50.757 58.2154 60 33.6313 35.3217 37.2648 39.5495 42.3224 45.8504 50.7047 58.5327 60 33.6144 35.0168 36.6112 38.4585 40.6544 43.3617 46.8936 51.9834 60 33.853 35.2311 36.7824 38.5566 40.6288 43.1197 46.2425 50.4308 56.813 60 34.6602 36.6892 38.9688 41.5698 44.5977 48.221 52.7324 58.7137 60 34.387 35.8608 37.5204 39.4194 41.6386 44.3085 47.6599 52.1648 59.061 60 34.7238 36.3109 38.1015 40.1553 42.5635 45.4744 49.1547 54.1633 60 34.9865 36.6181 38.4678 40.6031 43.1287 46.2197 50.2049 55.8217 60 35.1411 36.6628 38.3636 40.2911 42.5153 45.1443 48.3592 52.4981 58.3166 60 35.5331 37.265 39.2491 41.5716 44.3722 47.9 52.6705 60 35.6297 37.1495 38.8445 40.7603 42.9634 45.5553 48.7033 52.7131 58.242 60 35.7332 37.1335 38.7194 40.5476 42.7059 45.3402 48.7217 53.4499 60 36.1146 37.6722 39.4397 41.4827 43.9029 46.8722 50.7151 56.1701 60 36.6062 38.4825 40.652 43.2237 46.3814 50.4735 56.2969 60 36.6934 38.3535 40.2206 42.3536 44.8412 47.8252 51.5544 56.5296 60 36.9068 38.5456 40.4058 42.5566 45.1059 48.2357 52.2911 58.0602 60 37.0924 38.6486 40.4117 42.445 44.8468 47.7808 51.5519 56.8376 60 37.2125 38.6427 40.2566 42.1084 44.2806 46.9077 50.2322 54.7637 60 37.3907 38.7297 40.2162 41.8864 43.7923 46.0116 48.6681 51.9772 56.3678 60 37.8268 39.4267 41.2953 43.5416 46.3576 50.1344 55.8897 60 38.213 39.9842 42.0424 44.4992 47.5468 51.5625 57.4636 60 38.378 40.1084 42.1785 44.7552 48.1697 53.2449 60 38.4883 40.0382 41.8819 44.1572 47.1304 51.4287 59.3001 60 38.8667 40.5311 42.4436 44.6916 47.4181 50.8838 55.6447 60 39.0638 40.629 42.3895 44.4013 46.7481 49.5643 53.0858 57.7884 60 39.3118 40.8799 42.6571 44.7082 47.133 50.0988 53.9184 59.2919 60 39.4721 40.9369 42.5824 44.4595 46.6444 49.258 52.5107 56.8198 60 39.706 41.166 42.8293 44.7615 47.067 49.9252 53.6874 59.2053 60 40.174 41.877 43.8511 46.1991 49.0966 52.8818 58.3518 60 40.3212 41.8611 43.5556 45.4394 47.5602 49.9862 52.8204 56.2284 60 40.4769 41.9529 43.6429 45.6196 48.0004 50.9944 55.0309 60 41.0215 42.8089 44.8418 47.1985 50.0019 53.4621 57.9839 60 41.1808 42.8575 44.7893 47.0677 49.8453 53.4038 58.3618 60 41.334 42.8978 44.6976 46.8177 49.397 52.6915 57.2561 60 41.796 43.592 45.6269 47.9741 50.7471 54.1355 58.4925 60 41.8804 43.455 45.2229 47.2383 49.5818 52.3816 55.8595 60 42.094 43.6447 45.4288 47.5292 50.0826 53.3398 57.8429 60 42.3001 43.7655 45.4122 47.2914 49.4798 52.0997 55.3639 59.6965 60 42.8608 44.6298 46.6468 48.9925 51.7956 55.2784 59.8803 60 42.9572 44.5413 46.3654 48.5155 51.1339 54.4831 59.1363 60 43.1874 44.7571 46.5436 48.6165 51.0856 54.1388 58.1411 60 43.6786 45.4642 47.4467 49.6752 52.2194 55.1838 58.7351 60 43.6422 45.0902 46.7202 48.5849 50.7631 53.3822 56.667 60 43.8147 45.1565 46.6641 48.3847 50.3882 52.7864 55.7741 59.7388 60 44.2144 45.7117 47.4243 49.4244 51.8287 54.8427 58.8849 60 44.6108 46.2326 48.0715 50.1949 52.707 55.7829 59.7511 60 44.9211 46.6068 48.5509 50.8473 53.6526 57.2583 60 45.1023 46.6663 48.4749 50.6192 53.2527 56.6668 60 45.1637 46.4507 47.9126 49.6043 51.6119 54.0812 57.2897 60 45.5036 46.8314 48.3157 49.9984 51.9408 54.238 57.0493 60 46.122 47.8328 49.7755 52.023 54.6889 57.9657 60 46.2944 47.92 49.7771 51.9431 54.5416 57.7893 60 46.3929 47.7908 49.3853 51.2411 53.4609 56.2232 59.8819 60 46.7884 48.3232 50.1035 52.2232 54.8429 58.2736 60 47.0185 48.4453 50.062 51.927 54.1307 56.8239 60 47.4322 49.0634 50.9715 53.2704 56.1621 60 47.3928 48.5829 49.905 51.3922 53.0916 55.0742 57.4534 60 48.0278 49.5908 51.3236 53.2676 55.4815 58.0524 60 48.2056 49.683 51.3843 53.3896 55.8317 58.9554 60 48.6067 50.1959 51.9819 54.0203 56.3943 59.2368 60 48.7728 50.2873 52.0735 54.2508 57.0398 60 49.0655 50.5262 52.1862 54.1087 56.3926 59.2059 60 49.3279 50.755 52.3505 54.1595 56.248 58.7185 60 49.6846 51.1706 52.8511 54.7847 57.0615 59.8303 60 50.7163 53.0471 55.6985 58.7733 60 50.1447 51.4779 52.9724 54.6727 56.6445 58.9915 60 50.9226 52.7728 54.8862 57.3504 60 50.916 52.3918 54.0686 56.0096 58.3142 60 51.3075 52.8773 54.6856 56.8182 59.4174 60 51.9446 53.8319 55.9425 58.3365 60 51.866 53.3351 55.0018 56.9278 59.2089 60 52.3091 53.9223 55.7077 57.7066 59.977 60 52.5515 54.0655 55.7572 57.6739 59.8848 60 52.878 54.4499 56.3056 58.5708 60 53.2113 54.7667 56.5398 58.6015 60 53.4922 54.9848 56.6634 58.5812 60 53.8863 55.4653 57.2511 59.3061 60 54.1324 55.6323 57.3551 59.3787 60 54.6019 56.2315 58.0552 60 54.8324 56.3985 58.1982 60 55.154 56.7362 58.554 60 55.5295 57.1479 58.9606 60 56.0458 57.9362 60 56.0922 57.6293 59.3509 60 56.6952 58.5035 60 56.959 58.6917 60 57.3592 59.1927 60 57.7109 59.5637 60 57.9533 59.5804 60 58.2453 59.8335 60 58.5898 60 58.8668 60 59.3116 60 59.6028 60 59.9554 60 60 60 60 60 0.171867 0.33686 0.487872 0.647159 0.794616 0.957072 1.11154 1.26038 1.40294 1.54878 1.70881 1.85214 2.00301 2.15961 2.30879 2.46344 2.61961 2.77461 2.92879 3.08489 3.23614 3.38763 3.54374 3.7042 3.85835 4.02281 4.19707 4.36552 4.51319 4.66238 4.82543 4.99779 5.16887 5.33895 5.50453 5.68381 5.84462 6.00529 6.16122 6.32174 6.49287 6.64006 6.80875 6.97703 7.14987 7.31786 7.47787 7.64902 7.81854 7.97449 8.14136 8.31754 8.48575 8.67331 8.84094 8.99894 9.15997 9.30539 9.48284 9.66061 9.84111 10.0038 10.1669 10.3608 10.533 10.7065 10.8935 11.0897 11.27 11.4407 11.6201 11.7974 12.0022 12.1586 12.3433 12.5204 12.7182 12.8932 13.0832 13.2689 13.4447 13.6457 13.8294 14.0255 14.207 14.3927 14.5864 14.7736 14.9649 15.1612 15.3538 15.5406 15.7497 15.9477 16.1422 16.3336 16.5292 16.7393 16.933 17.1307 17.3192 17.5035 17.72 17.9277 18.1224 18.3252 18.5234 18.7247 18.9169 19.1301 19.3388 19.5353 19.7431 19.9443 20.1504 20.3714 20.5641 20.78 20.9773 21.161 21.365 21.6141 21.816 22.0364 22.2287 22.4497 22.6717 22.8619 23.0746 23.2939 23.5002 23.7129 23.9259 24.1272 24.3435 24.5479 24.7702 24.966 25.1906 25.4223 25.6491 25.857 26.0744 26.2787 26.4998 26.7252 26.9352 27.1502 27.3812 27.6229 27.8459 28.0719 28.2953 28.5195 28.7506 28.9732 29.2022 29.4386 29.6654 29.9039 30.1396 30.3551 30.5998 30.8381 31.0906 31.3387 31.5851 31.8297 32.0618 32.2909 32.5325 32.7756 33.0275 33.2486 33.4878 33.7642 34.0132 34.26 34.5141 34.7644 35.0005 35.2577 35.502 35.7547 36.0305 36.2905 36.541 36.8109 37.0713 37.3333 37.5925 37.8532 38.1054 38.3802 38.636 38.8844 39.1422 39.4074 39.6691 39.946 40.253 40.5257 40.7856 41.0643 41.3427 41.6019 41.8613 42.1624 42.4496 42.7326 43.0052 43.2966 43.5666 43.8445 44.1306 44.4182 44.6953 44.9491 45.2267 45.5167 45.8036 46.1158 46.3776 46.6646 46.9843 47.2765 47.5635 47.884 48.184 48.495 48.8377 49.1412 49.4379 49.7493 50.0823 50.3868 50.7036 51.0119 51.3514 51.6891 52.0108 52.3159 52.6438 52.9526 53.2885 53.6135 53.9294 54.2575 54.6087 54.9376 55.3125 55.694 56.0211 56.3899 56.7209 57.0669 57.438 57.7509 58.0907 58.4441 58.8256 59.1981 59.5592 59.9319 60 10.003 11.7803 13.7912 16.1063 18.8346 22.1561 26.4027 32.2974 42.0011 60 9.8235 11.1895 12.7302 14.4971 16.5683 19.0706 22.232 26.5293 33.269 49.9348 60 10.0478 11.4631 13.0448 14.837 16.9048 19.3485 22.3357 26.1795 31.578 40.7247 60 10.2596 11.7152 13.3488 15.2098 17.3722 19.9525 23.1523 27.366 33.551 45.4026 60 10.5259 12.1234 13.962 16.1274 18.7614 22.1245 26.7817 34.4047 59.0398 60 10.763 12.3977 14.2446 16.3671 18.8624 21.8895 25.7387 31.0297 39.5415 60 10.7735 12.2162 13.8333 15.6727 17.8056 20.3438 23.4782 27.5777 33.5155 44.4475 60 11.0884 12.6867 14.4685 16.4816 18.7952 21.5148 24.8141 29.009 34.7746 44.0473 60 11.3784 13.1172 15.0535 17.2379 19.7437 22.6818 26.2334 30.7238 36.8353 46.4481 60 11.4388 13.1086 15.0358 17.3142 20.101 23.6905 28.7405 37.3349 60 11.701 13.4189 15.3384 17.5132 20.0218 22.9857 26.6076 31.2654 37.8001 48.8424 60 11.4511 12.7396 14.2168 15.9478 18.0382 20.6773 24.2599 29.863 43.5319 60 12.2752 14.2834 16.5609 19.1911 22.3038 26.1166 31.0388 37.9935 49.9587 60 11.8637 13.1896 14.6604 16.3115 18.1935 20.3815 22.995 26.2402 30.5231 36.8374 49.1057 60 12.1744 13.6881 15.4123 17.4154 19.8053 22.7678 26.6669 32.3841 43.3033 60 12.271 13.7073 15.3595 17.3042 19.6679 22.6818 26.8458 33.6235 54.5783 60 12.5117 13.9903 15.6485 17.5359 19.7264 22.3362 25.5647 29.7996 35.9679 47.5133 60 13.0815 15 17.1562 19.6171 22.4833 25.9153 30.1926 35.8727 44.3519 60 13.0629 14.7499 16.6226 18.7269 21.1284 23.9249 27.2725 31.4432 36.9784 45.2307 60 13.3558 15.2472 17.4615 20.1322 23.4976 28.0511 35.1212 51.8009 60 13.3705 15.0723 17.0492 19.4076 22.331 26.1781 31.8176 42.5797 60 13.4189 14.9648 16.738 18.8167 21.3287 24.5036 28.8217 35.6035 52.4858 60 13.904 15.7872 17.9321 20.4235 23.3952 27.0778 31.9219 39.0169 52.5217 60 13.8555 15.469 17.2914 19.3848 21.8443 24.8255 28.6111 33.8021 42.107 60 13.9331 15.4549 17.1983 19.2389 21.6994 24.7986 28.9887 35.4845 50.701 60 14.3134 16.064 18.0857 20.478 23.4082 27.1903 32.5325 41.7165 60 14.3829 15.9626 17.7502 19.8089 22.2358 25.192 28.9747 34.2331 42.9205 60 14.6302 16.2851 18.1763 20.3829 23.0315 26.3447 30.7719 37.4657 51.6427 60 14.7223 16.284 18.0572 20.1083 22.5412 25.5309 29.4107 34.9462 44.7179 60 15.0275 16.748 18.7121 21.0005 23.7417 27.1605 31.7055 38.5057 52.3782 60 15.2196 16.9488 18.9248 21.23 23.9965 27.4563 32.0773 39.0575 53.7905 60 15.2616 16.7888 18.4938 20.4237 22.6467 25.2681 28.4627 32.5534 38.2475 47.6845 60 15.4722 17.0189 18.7485 20.7103 22.9761 25.658 28.944 33.1875 39.1875 49.5286 60 15.6087 17.099 18.7748 20.6892 22.9215 25.5987 28.9434 33.4033 40.1166 54.108 60 16.0242 17.7718 19.7448 22.0099 24.6691 27.8888 31.9703 37.5505 46.4179 60 15.9061 17.3219 18.961 20.9074 23.3033 26.4211 30.8925 38.8987 60 16.3612 18.0474 19.9442 22.1118 24.6407 27.6758 31.4718 36.5427 44.2048 60 16.479 18.1336 20.0562 22.3508 25.1964 28.9444 34.4481 45.007 60 16.5216 18.001 19.6884 21.6521 24.0007 26.9227 30.7917 36.5334 47.928 60 16.7223 18.2167 19.9145 21.8801 24.214 27.0868 30.8244 36.1833 45.7711 60 16.9197 18.399 20.0553 21.9368 24.1144 26.6993 29.8794 34.0137 39.9325 50.4789 60 17.1963 18.801 20.605 22.665 25.0659 27.9431 31.5339 36.3129 43.4798 58.2177 60 17.1537 18.5101 20.0539 21.8454 23.9794 26.6186 30.0789 35.1145 44.5153 60 17.5178 19.059 20.8018 22.8071 25.1681 28.0388 31.7018 36.7682 45.0375 60 17.8861 19.6194 21.5818 23.843 26.5109 29.7645 33.9353 39.7529 49.4429 60 18.174 19.9556 21.8946 24.0215 26.3767 29.015 32.0141 35.4885 39.6175 44.7068 51.3425 60 18.0402 19.5171 21.1756 23.0668 25.2669 27.8966 31.1658 35.4886 41.8862 54.4694 60 18.4878 20.2774 22.3361 24.7593 27.7047 31.4607 36.6502 45.0998 60 18.5116 20.1011 21.9184 24.0401 26.5888 29.7811 34.0557 40.5474 54.5257 60 18.7469 20.3969 22.2785 24.4675 27.0844 30.3381 34.6418 41.0147 53.5728 60 18.8772 20.4431 22.2065 24.2242 26.5822 29.4193 32.9809 37.7687 45.1003 60 18.8965 20.2568 21.7851 23.5287 25.5584 27.9868 31.0099 35.0169 40.9751 52.8783 60 19.175 20.6745 22.4256 24.5297 27.1663 30.6996 36.0741 47.7191 60 19.3766 20.8448 22.5348 24.5257 26.9486 30.0443 34.3364 41.3822 60 19.8608 21.6532 23.7073 26.1131 29.0163 32.6776 37.6387 45.366 60 19.7012 21.0767 22.6075 24.3333 26.311 28.6271 31.4216 34.9451 39.7175 47.1448 60 19.8899 21.3018 22.9195 24.8136 27.0983 29.9778 33.8748 39.9294 54.2516 60 20.3807 22.1409 24.1335 26.4295 29.1382 32.441 36.674 42.5761 52.3971 60 20.4148 21.9772 23.7343 25.7417 28.0827 30.8908 34.4001 39.0813 46.1346 60 21.0782 23.1741 25.5653 28.3487 31.679 35.8246 41.3191 49.4885 60 20.6542 22.0358 23.6051 25.4213 27.5767 30.2279 33.6734 38.6027 47.3695 60 20.9945 22.548 24.3133 26.357 28.7841 31.7723 35.6613 41.241 51.2421 60 21.1605 22.6559 24.3086 26.1557 28.2489 30.6641 33.5187 37.0091 41.5018 47.8156 58.5297 60 21.5244 23.2181 25.1524 27.4072 30.1104 33.4856 37.9814 44.7349 58.7057 60 21.7552 23.5058 25.5364 27.9539 30.941 34.852 40.5279 51.0384 60 21.7501 23.2499 24.9629 26.9599 29.3543 32.3446 36.3291 42.3187 54.7404 60 22.215 23.9849 25.9915 28.3082 31.0488 34.4035 38.73 44.8315 55.2781 60 22.2124 23.7215 25.4254 27.3817 29.6787 32.4606 35.9881 40.8138 48.4919 60 22.2663 23.6117 25.1422 26.9172 29.0297 31.6391 35.0533 40.0022 49.1339 60 22.8742 24.6562 26.6498 28.9121 31.5268 34.6245 38.4249 43.3433 50.3251 60 22.6911 24.0555 25.6015 27.3851 29.4927 32.0687 35.3828 40.0357 47.912 60 22.9787 24.4626 26.1846 28.2359 30.773 34.0998 38.942 47.9869 60 23.1904 24.6384 26.3075 28.2774 30.6811 33.765 38.0733 45.2762 60 23.5423 25.1603 26.9904 29.0968 31.5779 34.5965 38.452 43.7939 52.549 60 23.7803 25.4042 27.2114 29.2484 31.5825 34.3154 37.6119 41.7665 47.3895 56.1262 60 23.9746 25.629 27.5311 29.7684 32.4847 35.9428 40.7063 48.4077 60 24.3449 26.1303 28.1411 30.4429 33.1342 36.3743 40.4459 45.9287 54.355 60 24.559 26.4137 28.5887 31.2183 34.5441 39.0729 46.205 60 24.435 25.8465 27.4313 29.2377 31.3381 33.8471 36.963 41.0765 47.1441 58.9522 60 24.8097 26.3861 28.1392 30.1138 32.3739 35.0163 38.1972 42.1939 47.5744 55.8391 60 24.98 26.5955 28.508 30.8516 33.8789 38.1613 45.5512 60 25.0891 26.5068 28.1037 29.9319 32.0697 34.6441 37.8801 42.2401 48.9488 60 25.4571 27.0568 28.8727 30.9724 33.4615 36.518 40.4795 46.1183 56.0096 60 25.7201 27.3489 29.183 31.2816 33.7343 36.6853 40.3898 45.3699 52.996 60 25.8249 27.3545 29.1043 31.1483 33.6059 36.6881 40.8246 47.1364 60 26.1067 27.7149 29.5604 31.7257 34.3454 37.6622 42.1871 49.3422 60 26.2351 27.7142 29.3829 31.297 33.5413 36.2542 39.6842 44.3523 51.6941 60 26.4747 27.9751 29.6637 31.5945 33.8487 36.5571 39.95 44.4948 51.4015 60 26.7403 28.2962 30.058 32.0887 34.4854 37.4097 41.1613 46.4015 55.1597 60 26.8478 28.2451 29.795 31.535 33.5182 35.8239 38.5778 41.9972 46.5096 53.1613 60 27.3446 29.0623 30.9965 33.21 35.7973 38.9106 42.82 48.0778 56.1366 60 27.4806 29.1028 30.9229 32.996 35.4041 38.2766 41.8364 46.5197 53.3807 60 27.5941 29.078 30.7517 32.6712 34.9211 37.6394 41.0737 45.7417 53.0626 60 28.004 29.7239 31.7186 34.0926 37.0251 40.8623 46.425 56.6926 60 28.241 29.9672 31.961 34.3208 37.2121 40.9459 46.2249 55.3223 60 28.3382 29.904 31.6874 33.7587 36.2293 39.2905 43.3166 49.2116 60 28.4992 29.9937 31.7024 33.6968 36.0922 39.0914 43.1053 49.1941 60 28.603 29.922 31.4065 33.1043 35.087 37.4699 40.4564 44.4602 50.5555 60 28.9587 30.3895 31.9574 33.6914 35.6309 37.8312 40.3735 43.3842 47.0756 51.8482 58.6108 60 29.2754 30.8655 32.7034 34.8805 37.5513 41.0071 45.9114 54.4454 60 29.3644 30.7781 32.3729 34.2017 36.3456 38.936 42.2092 46.6592 53.6418 60 29.4826 30.7817 32.2384 33.8963 35.82 38.1113 40.9448 44.6592 50.0628 60 29.9195 31.4909 33.3601 35.6668 38.6808 43.0376 51.0131 60 30.2285 31.8339 33.6786 35.8466 38.4757 41.8167 46.4042 53.7656 60 30.4786 32.0682 33.8375 35.8324 38.1191 40.7975 44.0305 48.109 53.6384 60 30.8973 32.6989 34.7219 37.0285 39.7114 42.9179 46.9031 52.1706 59.96 60 30.8162 32.2992 34.0078 36.023 38.4796 41.6268 46.0115 53.2937 60 31.0331 32.4709 34.0938 35.9564 38.1421 40.7871 44.1371 48.7101 55.9513 60 31.2812 32.7417 34.3873 36.2715 38.4756 41.131 44.4713 48.9773 55.9286 60 31.6736 33.3078 35.172 37.342 39.9379 43.1689 47.45 53.8118 60 31.8089 33.2835 34.9158 36.7436 38.8203 41.2245 44.0791 47.5927 52.164 58.7177 60 32.0972 33.6422 35.3634 37.306 39.5357 42.1521 45.3183 49.3283 54.8022 60 32.5418 34.3349 36.3716 38.7288 41.5264 44.9676 49.4402 55.8402 60 32.6517 34.3191 36.2372 38.4952 41.2397 44.74 49.5772 57.4564 60 32.7126 34.1338 35.712 37.4863 39.5123 41.8737 44.7037 48.2357 52.937 59.9884 60 33.1208 34.7438 36.6032 38.7796 41.404 44.7095 49.1788 56.1078 60 33.3762 35.0561 37.0194 39.3812 42.3458 46.3304 52.4292 60 33.6134 35.2325 37.0642 39.1732 41.6585 44.6843 48.5529 53.923 60 33.8771 35.5447 37.4525 39.6815 42.362 45.7247 50.24 57.1373 60 34.1378 35.8371 37.756 39.9599 42.5482 45.6842 49.6636 55.1136 60 34.0932 35.4682 37.0125 38.7737 40.8231 43.2735 46.3212 50.3544 56.333 60 34.5904 36.2039 38.036 40.1553 42.6688 45.7577 49.7659 55.484 60 34.777 36.3472 38.1526 40.2762 42.8551 46.1388 50.664 57.9867 60 35.1278 36.7832 38.6629 40.8374 43.4167 46.5867 50.7009 56.5724 60 35.2089 36.7573 38.6059 40.8997 43.9235 48.3716 56.9522 60 35.6327 37.3151 39.2404 41.4908 44.1988 47.5992 52.1726 59.1826 60 35.8389 37.4561 39.3054 41.4651 44.0607 47.3138 51.6746 58.3127 60 36.2718 38.118 40.2236 42.6734 45.6024 49.2449 54.0643 60 36.1773 37.608 39.2035 41.0069 43.0807 45.5202 48.4829 52.2563 57.458 60 36.8345 38.7694 41.0263 43.7344 47.1203 51.6407 58.463 60 36.6258 38.011 39.5811 41.3931 43.5355 46.1561 49.5318 54.282 60 37.1222 38.7931 40.7073 42.948 45.6497 49.0527 53.654 60 37.5552 39.402 41.4799 43.8553 46.6277 49.957 54.1246 59.7002 60 37.4697 38.9502 40.6088 42.4947 44.6799 47.2779 50.4817 54.6625 60 37.8161 39.4296 41.2886 43.4813 46.1547 49.58 54.3534 60 37.8404 39.1834 40.699 42.4382 44.4784 46.9461 50.0694 54.3278 60 38.2641 39.7842 41.5004 43.471 45.7848 48.587 52.1404 57.0015 60 38.4038 39.8138 41.3985 43.2072 45.314 47.8369 50.9816 55.1585 60 38.9574 40.7099 42.717 45.0655 47.8958 51.4579 56.2674 60 39.1646 40.822 42.6962 44.8527 47.3918 50.4792 54.4189 59.8687 60 39.3822 41.0208 42.9365 45.2422 48.1385 52.036 58.0175 60 39.6134 41.1831 42.9471 44.9601 47.3043 50.1105 53.6068 58.247 60 40.0181 41.7575 43.7255 45.9912 48.6613 51.912 56.0681 60 40.2078 41.8655 43.7126 45.7982 48.1933 51.0058 54.4127 58.7344 60 40.2831 41.7311 43.3448 45.1667 47.2