<?xml version="1.0"?><VTKFile type="PolyData" version="0.1" byte_order="LittleEndian">
<PolyData>
<Piece NumberOfLines="10833" NumberOfPoints="10839">
<CellData Scalars=" CellData">
<DataArray type="Float32" Name="time" NumberOfComponents="1" format="ascii" >
0.199395 0.38287 0.571999 0.751785 0.910993 1.0729 1.23583 1.41832 1.57741 1.75542 1.89372 2.08104 2.25654 2.43114 2.54658 2.75248 2.96464 3.13335 3.31373 3.49382 3.68085 3.84448 3.99203 4.16824 4.32444 4.54009 4.73246 4.90755 5.09282 5.25325 5.44347 5.6325 5.83063 5.98681 6.16429 6.32644 6.52415 6.71537 6.88789 7.08517 7.31157 7.50787 7.66713 7.84642 8.02589 8.24516 8.48985 8.67511 8.84539 9.02691 9.19982 9.38109 9.56979 9.75314 9.92497 10.1356 10.3548 10.5212 10.7402 10.9231 11.1091 11.3352 11.5548 11.7471 11.9668 12.1564 12.3831 12.5724 12.8026 12.9789 13.1921 13.3808 13.6113 13.8299 14.013 14.2175 14.4522 14.6457 14.8883 15.1053 15.3216 15.5775 15.7908 16.017 16.2478 16.4518 16.654 16.8977 17.1208 17.3711 17.569 17.7875 18.0073 18.1813 18.3973 18.6358 18.8691 19.106 19.3558 19.6333 19.9211 20.1753 20.4201 20.627 20.7904 20.9926 21.2366 21.518 21.7412 21.9979 22.2078 22.484 22.7386 22.9854 23.2227 23.4387 23.7028 23.9224 24.1347 24.3844 24.6123 24.8485 25.1021 25.3917 25.6651 25.8871 26.1589 26.4115 26.7148 26.9629 27.1824 27.4096 27.6787 27.9056 28.1413 28.426 28.6869 28.9498 29.2303 29.48 29.7816 30 30.2957 30.5701 30.8512 31.1827 31.4818 31.7434 32.0896 32.3539 32.6696 32.9889 33.2678 33.5174 33.8265 34.1259 34.4323 34.7117 35.062 35.3614 35.6889 35.9795 36.2771 36.5831 36.8245 37.1325 37.4805 37.8413 38.1629 38.4657 38.773 39.0665 39.3591 39.6374 39.9832 40.315 40.6342 40.9791 41.2994 41.5906 41.9559 42.2495 42.611 42.9584 43.3079 43.7114 43.9891 44.3244 44.7255 45.0753 45.3934 45.8158 46.1686 46.5456 46.9405 47.3417 47.7225 48.1215 48.4226 48.7086 49.0797 49.3724 49.7675 50.2219 50.622 50.9851 51.4247 51.8971 52.1616 52.5858 53.0479 53.5374 53.9459 54.3354 54.7616 55.212 55.5566 56.0248 56.4262 56.926 57.3795 57.8937 58.3792 58.9268 59.3317 59.8053 60 8.28432 9.67773 11.2458 13.0388 15.132 17.6467 20.7967 25.0153 31.4239 45.2401 60 8.65965 10.222 11.9528 13.8929 16.1 18.6594 21.7054 25.4674 30.389 37.5207 50.6685 60 8.80422 10.3022 11.9745 13.8671 16.047 18.6173 21.7491 25.7582 31.336 40.569 60 8.84437 10.2093 11.8 13.7064 16.0854 19.2514 23.9986 33.7558 60 9.17794 10.7032 12.4551 14.5131 17.0073 20.1736 24.5136 31.4498 50.4258 60 9.20094 10.5676 12.1691 14.1029 16.5443 19.8585 25.0412 37.6782 60 9.63254 11.21 12.9527 14.8991 17.1033 19.6443 22.6438 26.3044 31.0027 37.5701 48.5666 60 9.75805 11.2939 13.0548 15.1183 17.6104 20.757 25.0295 31.7146 48.0574 60 9.74427 11.0425 12.5012 14.1659 16.1043 18.4246 21.3151 25.1504 30.8664 42.3728 60 10.3197 12.0609 14.0551 16.3886 19.201 22.7409 27.5214 34.9131 52.034 60 10.2964 11.8534 13.6626 15.8216 18.4992 22.0255 27.2029 37.1318 60 10.6094 12.2399 14.0716 16.1612 18.5933 21.5026 25.1235 29.9205 37.047 51.2409 60 10.8448 12.5309 14.4434 16.6528 19.2686 22.4747 26.6176 32.4818 42.6181 60 10.779 12.1738 13.7588 15.5939 17.7735 20.4571 23.9506 28.9646 37.9608 60 11.3336 13.184 15.2585 17.6186 20.3558 23.614 27.6393 32.9077 40.5488 54.6724 60 11.2574 12.7932 14.5528 16.6128 19.0972 22.2276 26.4627 33.037 48.5307 60 11.9083 13.8748 16.0796 18.5885 21.499 24.9646 29.2483 34.8595 43.0104 58.1459 60 11.8645 13.5911 15.5543 17.8291 20.5336 23.8689 28.2215 34.499 45.9159 60 11.9861 13.623 15.4865 17.6495 20.227 23.4165 27.6023 33.7048 45.1595 60 12.5075 14.4968 16.7541 19.3631 22.4539 26.2459 31.1534 38.1196 50.2509 60 12.322 13.8691 15.6262 17.6596 20.0727 23.0404 26.8964 32.411 42.2086 60 12.5302 14.1048 15.8945 17.9675 20.4308 23.4661 27.4221 33.1132 43.3905 60 12.8522 14.5991 16.5817 18.8737 21.5898 24.9237 29.2414 35.3789 46.1059 60 13.042 14.7931 16.8016 19.1563 22.0019 25.5985 30.4905 38.1747 57.3178 60 13.2108 14.9728 17.0231 19.4748 22.5243 26.5606 32.5456 44.3915 60 13.1871 14.6528 16.3713 18.4484 21.0742 24.6473 30.2646 44.3195 60 13.3264 14.6583 16.1548 17.8626 19.8512 22.2315 25.1967 29.1312 34.9946 46.796 60 13.8357 15.5447 17.5111 19.8264 22.6416 26.2338 31.2027 39.3141 60 13.8785 15.3875 17.1068 19.1043 21.4881 24.444 28.3365 34.0498 44.9972 60 14.3153 16.075 18.0297 20.2279 22.7391 25.6674 29.1797 33.5683 39.4213 48.2355 60 14.5815 16.4138 18.4718 20.8188 23.5498 26.8151 30.8763 36.2506 44.2167 59.9645 60 14.6962 16.4425 18.4385 20.7681 23.5653 27.0663 31.7487 38.842 53.9733 60 14.7764 16.3789 18.2383 20.4529 23.1913 26.7808 32.0015 41.7324 60 14.8658 16.33 17.9731 19.8449 22.0197 24.6145 27.8318 32.0673 38.2811 50.169 60 14.934 16.2514 17.7303 19.4158 21.3753 23.7154 26.6205 30.4533 36.1002 47.0478 60 15.2623 16.7385 18.3932 20.2759 22.4595 25.0587 28.2701 32.4735 38.5709 49.8461 60 15.5846 17.1792 18.9808 21.0512 23.4849 26.437 30.1899 35.3469 43.6362 60 15.7426 17.2871 19.0545 21.1203 23.6059 26.7268 30.9234 37.3535 51.6888 60 16.0087 17.6363 19.5046 21.6974 24.3514 27.714 32.3069 39.5892 58.6344 60 16.185 17.7444 19.5131 21.5562 23.9747 26.9385 30.7671 36.1831 45.5307 60 16.5655 18.2445 20.1231 22.2552 24.72 27.6411 31.2266 35.8703 42.4718 54.012 60 16.5811 18.0868 19.8566 22.0034 24.7323 28.4817 34.5066 51.5476 60 16.6966 18.0951 19.6906 21.5478 23.77 26.5363 30.203 35.6553 46.5487 60 16.7214 17.9204 19.2907 20.8897 22.8092 25.2109 28.4211 33.2782 43.5913 60 17.171 18.6392 20.307 22.2377 24.5295 27.3498 31.0172 36.2708 45.6464 60 17.3841 18.8146 20.4442 22.3375 24.5966 27.3974 31.0846 36.4936 46.8398 60 17.8267 19.4398 21.2755 23.4052 25.9412 29.0762 33.1834 39.1516 50.2447 60 17.8986 19.3849 21.1205 23.2066 25.8211 29.3261 34.6621 46.2596 60 18.4248 20.3224 22.5896 25.4064 29.1269 34.6214 45.3537 60 18.5592 20.3141 22.3209 24.6643 27.4804 31.0094 35.7391 42.9352 58.541 60 18.2948 19.5152 20.8891 22.4608 24.2971 26.5055 29.276 32.9963 38.6796 51.2004 60 19.0589 20.8667 22.8586 25.0765 27.5782 30.4471 33.81 37.8731 43.0066 49.9847 60 18.8412 20.2035 21.7431 23.513 25.5944 28.1209 31.3362 35.7628 42.909 60 19.2145 20.7608 22.5102 24.5239 26.8965 29.784 33.4738 38.591 46.9965 60 19.3001 20.7046 22.2679 24.0305 26.051 28.4176 31.2743 34.8783 39.7647 47.386 60 19.6596 21.2263 23.0154 25.1003 27.5987 30.7162 34.8645 41.0825 53.8487 60 19.9258 21.5043 23.2983 25.3759 27.844 30.8843 34.8447 40.5363 50.7847 60 20.0574 21.5837 23.3384 25.4022 27.9076 31.0967 35.4886 42.5849 60 20.3835 21.9804 23.7949 25.8956 28.3902 31.4613 35.4578 41.1907 51.4602 60 20.6792 22.3644 24.2676 26.4536 29.0215 32.1333 36.0833 41.4964 50.144 60 20.8061 22.3758 24.1214 26.0871 28.3369 30.9667 34.1317 38.1068 43.4548 51.6579 60 20.95 22.4156 24.0778 25.9973 28.269 31.0514 34.6433 39.7178 48.446 60 21.3254 22.9198 24.7146 26.7675 29.1653 32.0479 35.6623 40.5111 47.9037 60 21.4958 23.108 25.0385 27.4449 30.6412 35.4148 45.0925 60 21.5728 22.9112 24.41 26.1131 28.0852 30.4274 33.3116 37.0663 42.4562 52.1312 60 22.173 23.9741 26.049 28.4962 31.4791 35.2999 40.6213 49.453 60 22.0034 23.2999 24.7674 26.458 28.4517 30.8818 33.9942 38.3284 45.519 60 22.6288 24.3935 26.4098 28.7615 31.5831 35.1105 39.8185 46.9207 60 22.8306 24.508 26.4011 28.5735 31.1223 34.2056 38.1091 43.4334 51.8493 60 23.1414 24.9339 26.9498 29.2526 31.9379 35.1585 39.1823 44.5481 52.6267 60 23.3168 25.0423 26.998 29.2549 31.9231 35.1867 39.39 45.3031 55.364 60 23.6582 25.5323 27.6712 30.1622 33.1445 36.8608 41.7945 49.1552 60 23.8453 25.6622 27.7832 30.3309 33.5215 37.7928 44.2765 58.2124 60 23.8556 25.3411 26.9965 28.8658 31.0124 33.5333 36.5872 40.4614 45.7656 54.2201 60 24.1464 25.7598 27.6161 29.8015 32.4586 35.8486 40.5363 48.1834 60 24.4191 26.0465 27.879 29.9761 32.4271 35.3762 39.0791 44.0583 51.6872 60 24.836 26.6346 28.6731 31.0256 33.8066 37.2077 41.5876 47.7474 58.2209 60 24.9441 26.6089 28.4889 30.6481 33.1843 36.2574 40.1576 45.5009 54.0311 60 24.9987 26.3968 27.9551 29.715 31.7367 34.1118 36.9905 40.6456 45.6572 53.6723 60 25.4627 27.0984 28.9253 30.9942 33.379 36.1939 39.6292 44.0375 50.1982 60 25.5553 27.0241 28.6751 30.56 32.756 35.3868 38.668 43.0306 49.5592 60 26.0983 27.8986 30.0095 32.5611 35.787 40.1772 47.0815 60 26.1047 27.5844 29.254 31.1694 33.4158 36.132 39.5677 44.2474 51.6209 60 26.3707 27.8748 29.6016 31.6289 34.0836 37.1956 41.4508 48.214 60 26.748 28.3339 30.0962 32.0789 34.3454 36.9904 40.1665 44.1418 49.4588 57.5138 60 27.0019 28.6221 30.4439 32.5249 34.9512 37.8606 41.4947 46.3383 53.6235 60 27.3222 29.02 30.9053 33.025 35.4455 38.2668 41.6483 45.8689 51.4879 59.9189 60 27.384 28.865 30.5474 32.4948 34.8066 37.6512 41.3503 46.6486 56.1019 60 27.7609 29.4097 31.3382 33.6612 36.5828 40.5224 46.5952 60 28.1005 29.7727 31.681 33.9029 36.5625 39.8752 44.2704 50.8191 60 28.3101 29.9193 31.7007 33.6956 35.9623 38.5867 41.703 45.5396 50.5324 57.6946 60 28.7185 30.5131 32.5228 34.8064 37.4503 40.5902 44.4558 49.4871 56.7057 60 28.8224 30.463 32.3208 34.4624 36.9902 40.075 44.0338 49.5663 58.8252 60 28.9512 30.5153 32.296 34.3631 36.8268 39.8763 43.8799 49.7215 60 29.2702 30.9151 32.7963 34.9933 37.634 40.9442 45.3828 52.1433 60 29.5606 31.1745 32.9592 34.9549 37.2183 39.8327 42.927 46.7182 51.6142 58.5363 60 30.0557 31.9542 34.1107 36.6065 39.5687 43.2127 47.949 54.7271 60 29.8787 31.2642 32.8314 34.6353 36.7603 39.3461 42.6493 47.2276 54.738 60 30.6604 32.6068 34.8301 37.4223 40.5308 44.4136 49.589 57.3741 60 30.3738 31.6204 33.027 34.6409 36.5339 38.8231 41.7196 45.6664 51.8911 60 30.9084 32.3843 34.0633 36.0105 38.3281 41.1908 44.9368 50.367 60 31.2323 32.7062 34.3405 36.1742 38.263 40.6895 43.5843 47.1725 51.8945 58.8162 60 31.9676 33.9818 36.284 38.9706 42.1963 46.233 51.6306 59.8033 60 31.9363 33.5887 35.4047 37.4203 39.6847 42.2684 45.2762 48.8754 53.3566 59.2978 60 31.8705 33.2724 34.8556 36.6738 38.8092 41.3965 44.6795 49.176 56.3493 60 32.2509 33.8237 35.6169 37.7027 40.1953 43.293 47.3869 53.4393 60 32.4878 33.9941 35.697 37.6556 39.9604 42.7608 46.3299 51.2563 59.2583 60 32.686 34.0534 35.6131 37.4282 39.5989 42.2996 45.8755 51.1818 60 33.1174 34.6727 36.4448 38.5043 40.9626 44.0125 48.0317 53.94 60 33.462 35.045 36.8215 38.8455 41.1973 44.004 47.4846 52.0689 58.7999 60 33.7226 35.3232 37.1237 39.1816 41.5828 44.4651 48.0712 52.8907 60 34.1214 35.7948 37.6665 39.7901 42.2438 45.1496 48.7128 53.3201 59.8499 60 34.117 35.4971 37.1074 39.0401 41.4577 44.6876 49.57 59.9012 60 34.9401 36.893 39.1199 41.7107 44.8078 48.6584 53.7512 60 34.8044 36.3115 38.0634 40.1554 42.7519 46.1767 51.2194 60 35.1532 36.7104 38.4412 40.3893 42.6169 45.2182 48.3441 52.2612 57.5109 60 35.3452 36.7901 38.4256 40.3096 42.5314 45.2392 48.7067 53.5344 60 35.8955 37.6978 39.7884 42.2771 45.3521 49.3778 55.219 60 35.8792 37.3397 38.9807 40.8531 43.033 45.6418 48.8905 53.1987 59.6122 60 36.2864 37.874 39.6638 41.715 44.1171 47.0157 50.6708 55.6223 60 36.6633 38.359 40.257 42.4121 44.9049 47.8615 51.4948 56.2094 60 36.9408 38.6279 40.5098 42.6373 45.0843 47.964 51.463 55.9227 60 37.1135 38.6564 40.375 42.3147 44.5408 47.1527 50.3129 54.3145 59.7745 60 37.4241 38.9588 40.7109 42.7524 45.1981 48.2487 52.3053 58.3776 60 37.8131 39.3867 41.1387 43.1148 45.3808 48.0367 51.2452 55.2981 60 37.9037 39.3199 40.9468 42.8582 45.1751 48.1173 52.1523 58.609 60 38.1717 39.5145 41.0432 42.8178 44.9327 47.5502 50.9863 55.9985 60 38.7078 40.3478 42.2674 44.5822 47.4982 51.4414 57.5566 60 39.0323 40.5755 42.3052 44.2726 46.5539 49.2684 52.6201 57.003 60 39.2417 40.7148 42.4054 44.3888 46.7884 49.8265 53.971 60 39.7607 41.5147 43.516 45.8457 48.6333 52.1041 56.7053 60 39.7992 41.2882 42.9842 44.954 47.3034 50.2147 54.0437 59.6504 60 40.1671 41.7149 43.4901 45.5712 48.0863 51.2651 55.5888 60 40.5788 42.251 44.1223 46.2468 48.7038 51.617 55.1956 59.8362 60 40.8244 42.4756 44.3534 46.5298 49.1183 52.3123 56.4841 60 40.9486 42.3693 44.0057 45.9356 48.2875 51.2993 55.4921 60 41.4038 42.9535 44.6949 46.6821 48.996 51.7658 55.2161 59.7943 60 41.7124 43.2731 45.0563 47.136 49.6309 52.7492 56.91 60 41.8804 43.2362 44.7662 46.5216 48.5807 51.0709 54.2218 58.5161 60 42.3256 43.8477 45.5746 47.5701 49.9332 52.8308 56.5777 60 42.6814 44.2045 45.948 47.9867 50.4415 53.5268 57.6827 60 42.88 44.3289 45.987 47.9253 50.258 53.1878 57.1292 60 43.2296 44.6515 46.2539 48.0892 50.237 52.8257 56.0847 60 43.5607 44.9966 46.6376 48.552 50.8497 53.7233 57.562 60 44.0889 45.7258 47.5829 49.7286 52.2695 55.3849 59.4125 60 44.4768 46.1105 47.983 50.1762 52.8234 56.1626 60 44.6554 46.0699 47.6762 49.5345 51.7388 54.4483 57.9654 60 45.2471 47.0018 49.046 51.4946 54.548 58.6068 60 45.7177 47.4658 49.4134 51.6117 54.1351 57.0966 60 45.7797 47.2562 48.9231 50.8368 53.0832 55.803 59.2504 60 46.2831 47.912 49.7815 51.9752 54.6299 57.992 60 46.5342 47.9669 49.5563 51.3413 53.3766 55.7441 58.5739 60 46.8001 48.1643 49.6979 51.4491 53.4901 55.9362 58.9889 60 47.558 49.4546 51.6311 54.1846 57.2736 60 47.563 49.0049 50.6138 52.4333 54.5273 56.9932 59.9926 60 48.2374 50.03 52.0472 54.3532 57.0448 60 48.3955 49.9519 51.7126 53.7395 56.1275 59.0338 60 48.6513 50.093 51.7008 53.5181 55.6079 58.0664 60 49.1616 50.6879 52.3869 54.3028 56.4992 59.0726 60 49.8517 51.7989 54.0668 56.7822 60 49.9336 51.5248 53.3972 55.6718 58.5702 60 50.3054 51.8743 53.6654 55.752 58.2514 60 50.6764 52.2808 54.1624 56.4374 59.3148 60 51.0858 52.6784 54.4775 56.5448 58.9746 60 51.43 53.1224 55.1105 57.5201 60 51.8224 53.4588 55.284 57.3471 59.7196 60 52.2266 53.8266 55.6046 57.6051 59.892 60 52.6151 54.1734 55.9408 57.9821 60 52.8924 54.3216 55.9563 57.8654 60 53.3925 54.9432 56.6939 58.7042 60 53.6481 55.0489 56.6211 58.4127 60 54.2095 55.8577 57.7552 59.9909 60 54.6592 56.4035 58.4147 60 55.0769 56.8962 58.9903 60 55.1726 56.5921 58.202 60 55.7033 57.2475 58.9963 60 56.5621 58.7059 60 56.4494 57.8813 59.4884 60 57.3205 59.2959 60 57.3259 58.8987 60 57.731 59.2778 60 58.0813 59.5783 60 58.7243 60 58.956 60 59.2089 60 60 60 60 60 0.198991 0.385722 0.572426 0.808948 1.015 1.21542 1.43281 1.64473 1.84614 2.07218 2.24421 2.43507 2.62084 2.83346 3.04765 3.28166 3.44868 3.64212 3.83323 4.03669 4.21505 4.41572 4.63219 4.85296 5.08699 5.29083 5.49371 5.75319 5.97552 6.19632 6.39696 6.62825 6.85073 7.08676 7.29175 7.51224 7.77559 8.01409 8.24679 8.44823 8.70983 8.95192 9.14846 9.36719 9.60761 9.81068 10.0093 10.2319 10.4458 10.6476 10.8958 11.1512 11.4077 11.6516 11.8676 12.1318 12.3563 12.5972 12.8512 13.1107 13.315 13.5693 13.7767 14.0098 14.2585 14.5202 14.7868 15.0272 15.2939 15.5095 15.7426 15.9729 16.2215 16.4394 16.703 16.9371 17.1882 17.4363 17.7355 18.0053 18.2494 18.5211 18.7859 19.0548 19.3384 19.6296 19.857 20.1152 20.4042 20.6949 20.9625 21.2028 21.4534 21.7341 21.9879 22.2491 22.5237 22.7933 23.0402 23.298 23.5832 23.8814 24.125 24.4492 24.7536 25.0658 25.3527 25.6272 25.9182 26.1428 26.4192 26.7126 27.0019 27.294 27.5455 27.8488 28.248 28.5486 28.8115 29.1015 29.4394 29.7726 30.0663 30.3442 30.6253 30.9396 31.2463 31.5398 31.908 32.2161 32.5964 32.9559 33.2542 33.5527 33.8548 34.1041 34.4801 34.8058 35.087 35.4125 35.724 36.003 36.3033 36.6762 36.9927 37.3423 37.6955 38.0589 38.4372 38.722 39.0342 39.3601 39.6866 40.0014 40.3327 40.7038 41.0059 41.4219 41.7789 42.1879 42.5156 42.9107 43.2421 43.6219 44.0135 44.3554 44.7108 45.1039 45.4525 45.8603 46.286 46.731 47.1384 47.6194 48.0568 48.4015 48.7699 49.1659 49.5551 49.9524 50.4052 50.8402 51.2473 51.6746 52.1452 52.6214 53.0607 53.5431 53.9211 54.376 54.8576 55.2191 55.6624 56.1006 56.5885 57.003 57.4262 57.9112 58.3284 58.778 59.2995 59.8051 60 7.86805 9.46661 11.2714 13.3435 15.7762 18.722 22.4569 27.5645 35.6855 57.2513 60 8.05625 9.63772 11.4239 13.4759 15.8868 18.8093 22.5208 27.6114 35.7595 58.2518 60 8.69682 10.775 13.1369 15.8724 19.1224 23.1261 28.3423 35.8408 49.3544 60 8.4311 9.9441 11.6967 13.7792 16.3456 19.6907 24.5037 33.1998 60 8.62502 10.0793 11.7299 13.6382 15.8999 18.6764 22.2732 27.3882 36.3388 60 9.20417 11.041 13.0976 15.4336 18.137 21.3456 25.2925 30.422 37.762 50.8216 60 9.36205 11.1371 13.1628 15.5218 18.3457 21.864 26.5333 33.4953 47.5299 60 9.49589 11.1311 12.9556 15.0189 17.3932 20.1891 23.5894 27.9294 33.9359 43.7534 60 9.54644 11.0207 12.7036 14.6643 17.0127 19.9412 23.8335 29.6543 41.5093 60 9.85345 11.3825 13.1108 15.0979 17.4354 20.2739 23.8883 28.8694 36.9301 60 10.1201 11.7346 13.5567 15.6477 18.1012 21.0695 24.8279 29.9555 38.065 58.9849 60 10.0592 11.3812 12.8852 14.6295 16.7056 19.2701 22.6261 27.4916 36.4752 60 10.592 12.27 14.1602 16.3243 18.8554 21.9037 25.7365 30.9029 38.8597 56.9793 60 10.7703 12.3891 14.2155 16.3106 18.7672 21.7368 25.4915 30.602 38.6414 58.8187 60 11.0268 12.6762 14.5461 16.7049 19.2582 22.3832 26.4123 32.0913 41.8018 60 11.3866 13.129 15.073 17.2715 19.8015 22.7808 26.4043 31.0297 37.4321 47.9006 60 11.7184 13.6404 15.8069 18.2893 21.1957 24.7015 29.1197 35.0992 44.3886 60 11.7656 13.4934 15.4263 17.6196 20.1547 23.1582 26.843 31.612 38.3822 50.1749 60 11.8294 13.4285 15.2651 17.4224 20.0364 23.354 27.8993 35.1562 54.8895 60 11.9822 13.5072 15.2671 17.3477 19.8926 23.1704 27.7819 35.6291 60 12.2721 13.8674 15.6564 17.6928 20.0561 22.8716 26.3546 30.9231 37.5765 50.0264 60 12.482 14.042 15.7595 17.6701 19.8226 22.2873 25.1704 28.6437 33.0126 38.9057 47.9951 60 12.6592 14.1944 15.943 17.974 20.3966 23.3988 27.348 33.1326 44.1449 60 12.8079 14.2589 15.9437 17.9526 20.4405 23.7099 28.4892 37.5321 60 13.0781 14.5044 16.1037 17.924 20.0361 22.5518 25.6628 29.7411 35.6741 46.7397 60 13.7012 15.569 17.6625 20.0439 22.8052 26.091 30.1486 35.4553 43.1406 57.2857 60 13.7224 15.3623 17.1948 19.2713 21.6668 24.4975 27.9573 32.4083 38.6571 49.2339 60 13.8026 15.2298 16.8447 18.7043 20.8962 23.5656 26.9802 31.7246 39.5523 60 14.2291 15.8676 17.734 19.9019 22.488 25.6931 29.9101 36.0892 47.8657 60 14.3864 15.9176 17.6461 19.6302 21.9591 24.7782 28.3504 33.2309 40.9739 60 14.6657 16.2561 18.0434 20.0834 22.4594 25.3044 28.8503 33.5591 40.5886 54.8194 60 14.8887 16.4247 18.1249 20.0286 22.1912 24.6944 27.666 31.3224 36.077 42.8869 55.0357 60 14.9859 16.4276 18.1259 20.1923 22.8317 26.4891 32.4855 52.1316 60 15.3974 16.9839 18.808 20.9534 23.5581 26.8737 31.4405 38.8213 60 15.7773 17.5126 19.4712 21.7194 24.3576 27.5504 31.5947 37.1166 45.8644 60 16.0674 17.8565 19.8782 22.2021 24.9348 28.2514 32.4712 38.2782 47.6439 60 16.4042 18.2651 20.3981 22.8963 25.9113 29.7142 34.8683 42.9005 60 16.2305 17.5856 19.1198 20.8879 22.9741 25.5185 28.7809 33.333 40.9211 60 16.6445 18.1922 19.9699 22.0582 24.5891 27.8019 32.2054 39.2425 58.4836 60 16.8693 18.4095 20.164 22.2019 24.6331 27.6464 31.6113 37.4219 48.5015 60 17.2113 18.7846 20.5399 22.5251 24.8094 27.4994 30.7707 34.946 40.7242 50.1676 60 17.7188 19.6473 21.9381 24.7596 28.4344 33.7135 43.2098 60 17.3302 18.4963 19.7929 21.2532 22.9244 24.878 27.2292 30.1823 34.1556 40.2508 53.9067 60 17.9096 19.4519 21.1738 23.1227 25.3678 28.0153 31.2419 35.3739 41.1264 50.6635 60 18.0927 19.5477 21.1782 23.0326 25.1822 27.7392 30.8948 35.0179 40.978 51.8892 60 18.3777 19.8873 21.5625 23.4442 25.5906 28.0885 31.0761 34.7933 39.7158 47.0223 60 18.4674 19.8275 21.3282 23.0022 24.8946 27.0712 29.6327 32.745 36.7118 42.1876 51.0838 60 18.8496 20.3922 22.1426 24.1653 26.5613 29.5001 33.3018 38.6943 48.0666 60 19.3617 21.2173 23.3303 25.7838 28.7093 32.3324 37.0937 44.054 57.2253 60 19.3177 20.8631 22.6091 24.6156 26.974 29.8348 33.4714 38.4681 46.498 60 19.6593 21.2853 23.1318 25.268 27.8021 30.9173 34.9614 40.7362 50.9528 60 20.1568 22.026 24.1537 26.6232 29.5655 33.2058 37.9816 44.9399 57.9764 60 20.413 22.2458 24.3256 26.7292 29.5768 33.07 37.5905 44.0061 55.1734 60 20.6347 22.395 24.3677 26.6111 29.2116 32.3049 36.1222 41.1096 48.3183 60 20.7853 22.4305 24.2525 26.2936 28.6141 31.3026 34.4983 38.4381 43.5774 50.9826 60 21.236 23.1272 25.3303 27.9685 31.2574 35.6265 42.1538 55.4009 60 21.0049 22.3162 23.7976 25.5001 27.5011 29.9284 33.0139 37.2532 44.0657 60 21.7527 23.6015 25.6937 28.1031 30.9437 34.4039 38.8319 44.9884 55.1632 60 21.7631 23.303 25.0387 27.0272 29.355 32.1622 35.6987 40.4818 47.9023 60 21.9932 23.4696 25.1359 27.0483 29.2923 32.0077 35.4465 40.1398 47.5684 60 22.2568 23.784 25.5229 27.5419 29.9488 32.929 36.844 42.5627 53.3597 60 22.7412 24.4754 26.4236 28.6459 31.2326 34.3268 38.1776 43.2791 50.8576 60 23.1237 25.0305 27.1787 29.6387 32.5163 35.9833 40.3445 46.2281 55.3059 60 23.0263 24.5489 26.2833 28.2982 30.7022 33.6825 37.6053 43.3581 54.3509 60 23.7308 25.7678 28.1413 30.9851 34.5327 39.2512 46.3177 60 23.517 24.9818 26.6968 28.7655 31.3729 34.902 40.386 53.3698 60 23.9135 25.4382 27.1456 29.0854 31.3313 33.998 37.2806 41.5518 47.6767 58.6392 60 24.2773 25.9001 27.7072 29.7458 32.084 34.8254 38.1387 42.3269 48.0248 56.9791 60 24.7373 26.5762 28.6773 31.1283 34.0693 37.7466 42.6562 50.0672 60 24.8096 26.4191 28.203 30.2035 32.4808 35.1239 38.2733 42.17 47.2825 54.7328 60 25.2491 27.0733 29.1204 31.4524 34.1617 37.3945 41.4025 46.679 54.4197 60 25.5789 27.4905 29.6456 32.1156 35.0084 38.4995 42.9024 48.8687 58.1629 60 25.512 27.0496 28.7976 30.8231 33.2311 36.2003 40.0744 45.6597 55.8071 60 25.8072 27.4187 29.275 31.464 34.1316 37.5475 42.3022 50.1822 60 26.1763 27.8648 29.7996 32.0653 34.7986 38.2445 42.9102 50.1666 60 26.501 28.2298 30.168 32.3733 34.9313 37.9768 41.7402 46.6683 53.8219 60 26.7789 28.5183 30.4889 32.7616 35.4463 38.7259 42.9415 48.8509 58.815 60 26.8056 28.3096 30.0838 32.2469 35.0187 38.8823 45.3063 60 27.2145 28.7366 30.4352 32.3567 34.5687 37.1748 40.3466 44.3997 50.0209 59.2548 60 27.5836 29.2074 31.0603 33.2177 35.8 39.0163 43.2832 49.6396 60 28.0016 29.7481 31.6868 33.8651 36.3508 39.2451 42.7095 47.0246 52.7496 60 28.3042 30.095 32.1504 34.5625 37.4818 41.1797 46.2288 54.2286 60 28.571 30.3055 32.2651 34.5169 37.1639 40.3747 44.4564 50.0648 59.0787 60 28.8597 30.5722 32.4973 34.6951 37.2561 40.3245 44.1522 49.2431 56.8669 60 28.9317 30.3774 32.013 33.8963 36.1157 38.818 42.2732 47.0704 54.9714 60 29.4099 31.0416 32.9142 35.1112 37.7692 41.1345 45.7254 52.9847 60 29.6573 31.3028 33.2276 35.5459 38.4614 42.3924 48.4503 60 29.917 31.475 33.2216 35.2088 37.5138 40.2577 43.6483 48.0872 54.5284 60 30.2726 31.8847 33.7219 35.8575 38.4076 41.5728 45.7474 51.8939 60 30.3779 31.7657 33.3861 35.3331 37.7726 41.0409 46.0101 56.7578 60 30.9 32.4884 34.2685 36.2929 38.6395 41.4308 44.8757 49.3767 55.883 60 31.217 32.8911 34.8182 37.0886 39.8518 43.3828 48.2797 56.3232 60 31.468 33.0869 34.923 37.0435 39.5532 42.6278 46.5974 52.2078 60 31.6174 33.0755 34.7691 36.7891 39.2922 42.5844 47.4053 56.5755 60 32.0839 33.7273 35.6072 37.8032 40.4438 43.7556 48.2007 54.9848 60 32.1081 33.4237 34.8964 36.5689 38.5041 40.8001 43.6232 47.2896 52.5288 60 32.635 34.1863 35.9181 37.878 40.1351 42.7963 46.0382 50.1872 55.9571 60 32.752 34.1103 35.6471 37.4166 39.5021 42.0414 45.2885 49.7976 57.227 60 33.217 34.7906 36.5833 38.6662 41.1517 44.2336 48.2917 54.2472 60 33.6753 35.4182 37.379 39.6202 42.2354 45.375 49.3036 54.5555 60 33.8156 35.3508 37.0721 39.0307 41.3026 44.0078 47.3511 51.7297 58.0881 60 34.2465 35.9309 37.8878 40.2231 43.1188 46.932 52.5285 60 34.4213 35.9345 37.6139 39.5007 41.6534 44.1595 47.1582 50.8917 55.8415 60 34.6876 36.107 37.7078 39.5432 41.6942 44.2921 47.5728 52.028 59.0021 60 35.3219 37.0623 39.0245 41.2737 43.9084 47.0886 51.1007 56.5406 60 35.5786 37.186 38.9657 40.9593 43.2253 45.8501 48.969 52.8123 57.8215 60 35.5929 36.9038 38.4221 40.226 42.4484 45.344 49.5073 57.0135 60 36.231 37.8791 39.7397 41.8759 44.3838 47.4206 51.2706 56.5352 60 36.5182 38.1285 39.9628 42.0936 44.6358 47.787 51.9342 58.0142 60 36.6642 38.1411 39.809 41.7249 43.9756 46.7035 50.1667 54.9143 60 37.0292 38.5313 40.1862 42.0286 44.1064 46.4887 49.2803 52.6518 56.9088 60 37.3798 38.9123 40.6183 42.542 44.7473 47.331 50.4504 54.3873 59.7284 60 37.6915 39.2378 41.0079 43.0776 45.5695 48.7013 52.9193 59.4043 60 37.9655 39.4397 41.12 43.0734 45.4062 48.3022 52.1231 57.7525 60 38.3971 40.0546 41.9758 44.2607 47.0799 50.7622 56.0816 60 38.895 40.7113 42.7962 45.2434 48.2057 51.9594 57.0881 60 38.9516 40.2712 41.724 43.3397 45.1598 47.2434 49.6799 52.614 56.3021 60 39.301 40.6506 42.1693 43.9057 45.9331 48.3687 51.4197 55.5059 60 39.744 41.2604 42.9802 44.9664 47.317 50.1964 53.9138 59.1669 60 40.1187 41.6906 43.4852 45.5761 48.0808 51.2046 55.3577 60 40.5793 42.205 44.0206 46.0766 48.4463 51.2431 54.6555 59.0334 60 41.0029 42.6568 44.4806 46.5132 48.8086 51.4451 54.542 58.295 60 41.2441 42.8694 44.775 47.0782 49.9899 53.9514 60 41.4321 42.8909 44.5772 46.575 49.0261 52.1987 56.7032 60 41.8769 43.4414 45.2027 47.2175 49.5713 52.4017 55.9521 60 42.1208 43.5634 45.1998 47.0904 49.329 52.0731 55.62 60 42.4064 43.8019 45.4279 47.3757 49.8051 53.0352 57.8693 60 42.7893 44.1893 45.7533 47.525 49.5679 51.9805 54.9266 58.7116 60 43.5769 45.3925 47.4411 49.7913 52.5475 55.88 60 43.6491 45.1511 46.8482 48.7986 51.0917 53.8738 57.4118 60 44.0414 45.5174 47.2236 49.2455 51.7269 54.9404 59.507 60 44.5403 46.0737 47.7927 49.7483 52.0163 54.7159 58.0508 60 45.0322 46.7242 48.6147 50.7565 53.2271 56.1458 59.712 60 45.1591 46.6417 48.3448 50.3454 52.7702 55.8488 60 45.6673 47.3378 49.2701 51.5618 54.3781 58.0323 60 46.0714 47.8806 49.9855 52.502 55.6312 59.7708 60 46.1487 47.5252 49.0911 50.9069 53.0679 55.7369 59.2286 60 46.8877 48.6571 50.6529 52.9419 55.6252 58.8674 60 47.0844 48.721 50.584 52.7462 55.3225 58.5098 60 47.5631 49.3271 51.3567 53.7463 56.6517 60 47.7709 49.3194 51.043 52.9865 55.2144 57.8244 60 48.1513 49.7686 51.579 53.6352 56.0144 58.8372 60 48.5743 50.2638 52.1425 54.2583 56.6798 59.5105 60 48.7229 50.1083 51.6637 53.4368 55.4983 57.9609 60 49.3999 51.1492 53.1452 55.4689 58.2497 60 49.7356 51.3861 53.2443 55.3701 57.8536 60 50.2478 52.0006 53.9618 56.1876 58.7608 60 50.6499 52.3765 54.3069 56.4959 59.0235 60 50.9489 52.5282 54.3102 56.3545 58.7522 60 51.0325 52.3168 53.7427 55.3453 57.1748 59.3061 60 51.5475 53.0045 54.634 56.4825 58.6182 60 51.9209 53.3918 55.0711 57.0276 59.3714 60 52.5146 54.1958 56.0776 58.2143 60 52.7903 54.3715 56.147 58.1716 60 53.1154 54.6408 56.3762 58.3886 60 53.8153 55.6683 57.8251 60 53.9409 55.479 57.1942 59.1327 60 54.502 56.1661 58.0925 60 54.7925 56.2858 57.9809 59.9412 60 55.5467 57.3816 59.5226 60 55.6514 57.1218 58.777 60 56.1093 57.5697 59.2141 60 56.5722 58.1234 59.8878 60 57.2891 59.1267 60 57.4464 58.9605 60 57.886 59.4206 60 58.2788 59.7526 60 58.8214 60 59.0615 60 59.543 60 60 60 60 0.172114 0.331831 0.502514 0.667887 0.816036 0.987564 1.15541 1.34147 1.50255 1.67609 1.81072 1.95548 2.11517 2.31191 2.48752 2.63357 2.8348 3.01347 3.18785 3.35307 3.51803 3.68089 3.83224 3.99751 4.16655 4.31808 4.50689 4.64969 4.84355 5.00038 5.17527 5.34258 5.51419 5.70569 5.87434 6.06119 6.2354 6.42098 6.56965 6.75371 6.95364 7.12989 7.31639 7.49679 7.65236 7.81807 7.98687 8.18363 8.32718 8.51634 8.72652 8.91662 9.11541 9.28309 9.46993 9.63705 9.85939 10.0141 10.2003 10.377 10.5724 10.7547 10.9355 11.1404 11.3558 11.5379 11.7063 11.9001 12.1462 12.3429 12.5119 12.7133 12.8977 13.1088 13.3207 13.5056 13.6739 13.8728 14.0337 14.2431 14.4605 14.6767 14.8937 15.0838 15.3191 15.5561 15.7518 15.9541 16.191 16.3719 16.5759 16.8036 17.003 17.2476 17.4753 17.7216 17.9177 18.1571 18.3782 18.5516 18.7736 18.9972 19.1891 19.4315 19.6341 19.8504 20.0708 20.343 20.5581 20.7969 21.0266 21.2673 21.524 21.7528 21.9909 22.2152 22.4318 22.6646 22.9083 23.1775 23.4017 23.6416 23.8803 24.1309 24.3479 24.5699 24.8174 25.0541 25.3059 25.6026 25.8596 26.1439 26.3758 26.6611 26.9419 27.2013 27.4274 27.6249 27.9202 28.1949 28.4607 28.7287 29.0277 29.3122 29.6456 29.9236 30.1824 30.4819 30.7302 30.9967 31.2515 31.5243 31.7964 32.0605 32.3046 32.5691 32.8822 33.1788 33.4193 33.6844 34.0155 34.3666 34.6322 34.8715 35.1091 35.4378 35.7623 36.0646 36.3051 36.6093 36.894 37.2188 37.5457 37.8828 38.2142 38.4883 38.7579 39.0857 39.3838 39.7126 39.9896 40.3247 40.6737 41.006 41.3377 41.6779 42.0593 42.3488 42.6863 43.0451 43.4269 43.7541 44.1004 44.4159 44.7962 45.1587 45.6061 46.0073 46.3617 46.7117 47.1123 47.5019 47.851 48.2501 48.6496 48.9964 49.3966 49.7566 50.1659 50.531 50.8623 51.2668 51.669 52.0727 52.4622 52.783 53.1818 53.6304 54.0183 54.45 54.7812 55.1514 55.6046 56.0128 56.4789 56.9603 57.3445 57.8036 58.2033 58.6491 59.0689 59.477 59.9577 60 7.91173 9.58948 11.4731 13.6201 16.1165 19.0984 22.8015 27.6898 34.8994 48.9243 60 8.17143 9.94031 11.9267 14.1916 16.8261 19.9749 23.8885 29.0621 36.7144 51.7377 60 8.37899 10.1771 12.2103 14.5495 17.3033 20.6511 24.9216 30.8255 40.4512 60 8.22353 9.64751 11.2647 13.136 15.3562 18.0861 21.6316 26.6982 35.681 60 8.70927 10.5165 12.6053 15.0798 18.1155 22.044 27.6201 37.3278 60 8.52807 9.87874 11.3912 13.1095 15.0987 17.4605 20.3673 24.1487 29.5688 39.2582 60 8.90557 10.4561 12.1776 14.1126 16.3215 18.8949 21.9773 25.821 30.93 38.5706 54.1341 60 9.1967 10.9153 12.938 15.3963 18.5308 22.8605 29.9057 51.6301 60 9.43878 11.1446 13.0318 15.1436 17.5408 20.3126 23.5984 27.633 32.8618 40.3036 53.3537 60 9.37369 10.8394 12.5237 14.5033 16.9043 19.956 24.1477 30.8795 49.8502 60 9.74211 11.4447 13.3872 15.6484 18.354 21.7222 26.1869 32.8267 46.0978 60 9.87223 11.5799 13.591 16.0371 19.1601 23.484 30.5584 53.3393 60 9.9918 11.6055 13.4656 15.6611 18.3404 21.7785 26.5829 34.6212 60 10.3888 12.1958 14.2678 16.6963 19.6299 23.3355 28.3703 36.2598 55.6841 60 10.7829 12.8278 15.1951 18.006 21.4661 25.968 32.4233 43.9752 60 10.7968 12.6429 14.7379 17.1594 20.0283 23.5483 28.1044 34.5735 45.8465 60 10.7217 12.2463 13.9974 16.0544 18.5472 21.7115 26.0481 32.9766 51.8951 60 10.9597 12.5245 14.3181 16.419 18.9547 22.1535 26.4898 33.2507 49.5061 60 10.9788 12.3296 13.8558 15.6097 17.6715 20.1729 23.3533 27.7246 34.7556 54.76 60 11.2601 12.7278 14.3997 16.3419 18.6591 21.5317 25.3126 30.8567 41.4474 60 11.3679 12.7362 14.2767 16.039 18.0981 20.5744 23.6811 27.853 34.2269 48.2751 60 11.5895 13.009 14.6184 16.4764 18.6741 21.3643 24.8331 29.7237 38.0917 60 11.9406 13.5602 15.3923 17.5013 19.9862 23.0105 26.8754 32.2357 41.0422 60 12.0529 13.5779 15.2852 17.2242 19.4678 22.1301 25.4037 29.656