<?xml version="1.0"?><VTKFile type="PolyData" version="0.1" byte_order="LittleEndian">
<PolyData>
<Piece NumberOfLines="5690" NumberOfPoints="5696">
<CellData Scalars=" CellData">
<DataArray type="Float32" Name="time" NumberOfComponents="1" format="ascii" >
0.179817 0.520847 0.87772 1.23783 1.2533 1.61552 1.62402 1.98834 2.00788 2.37247 2.73427 3.10495 3.12613 3.4943 3.81317 4.16904 4.54811 4.57967 4.96118 4.9755 5.35937 5.39084 5.7772 5.78675 6.1755 6.17857 6.56971 6.57037 6.9639 6.96408 7.36004 7.38566 7.78422 7.81181 8.21304 8.22605 8.60703 9.01007 9.4102 9.82155 9.8232 10.2245 10.6246 11.0438 11.0664 11.4885 11.5058 11.9192 12.347 12.3747 12.8055 12.8084 13.2232 13.6418 14.0812 14.0947 14.5353 14.9809 14.9818 15.4229 15.8442 16.299 16.3099 16.768 16.79 17.2346 17.6994 17.7394 18.1921 18.6638 18.6667 19.1408 19.6196 19.6544 20.1295 20.578 21.0232 21.4966 21.971 22.459 22.9632 22.9688 23.477 23.4906 24.0002 24.4506 24.9708 25.0057 25.5304 25.5678 26.0971 26.1358 26.6699 26.6738 27.2124 27.2178 27.761 27.7792 28.3271 28.3598 28.9047 29.4623 29.4831 30.0341 30.5884 31.1608 31.1928 31.7707 31.7849 32.3682 32.404 32.9633 33.5574 33.5754 34.1752 34.2207 34.8266 34.8664 35.4688 36.051 36.6669 37.2733 37.8849 38.5262 39.1742 39.2191 39.8287 40.4901 40.5441 41.2129 41.259 41.9354 41.9457 42.5836 43.2706 43.9203 44.6254 44.6801 45.3936 45.4005 46.1221 46.127 46.7995 47.537 47.5521 48.2808 49.0355 49.0367 49.7978 50.5524 51.3136 52.105 52.1644 52.9665 53.0632 53.8168 54.6399 54.6749 55.5091 55.589 56.4352 56.4426 57.276 58.1328 59.0134 59.019 59.9119 59.9624 60 8.23496 9.85839 11.6903 13.7921 16.2575 19.2391 23.0117 28.153 36.2636 56.912 60 8.51139 10.0333 11.7673 13.7824 16.1874 19.1706 23.1008 28.875 39.9706 60 8.97415 10.5636 12.3636 14.4384 16.8876 19.8764 23.7121 29.0728 38.0451 60 9.20791 10.5988 12.1823 14.0205 16.2114 18.9232 22.4836 27.6786 37.454 60 9.86853 11.5105 13.3403 15.4068 17.7803 20.5683 23.9466 28.2346 34.1099 43.4925 60 10.0428 11.4142 12.9529 14.7056 16.7417 19.1707 22.1814 26.1432 31.9501 43.028 60 10.681 12.294 14.0813 16.0853 18.3658 21.0116 24.1624 28.0575 33.1612 40.5788 54.3739 60 11.1104 12.8245 14.8304 17.2484 20.2926 24.4052 30.7697 45.5663 60 11.5216 13.1658 15.0288 17.178 19.7175 22.8213 26.8139 32.4182 41.8999 60 11.6796 13.0581 14.6437 16.5098 18.7774 21.668 25.6593 32.1479 52.0177 60 12.1073 13.5342 15.1281 16.9332 19.0142 21.4712 24.4703 28.3207 33.706 42.7363 60 12.6513 14.2304 15.9802 17.9422 20.1751 22.7658 25.8514 29.6665 34.6667 41.9378 55.4818 60 13.0107 14.5165 16.2355 18.2384 20.6376 23.6297 27.6076 33.5591 45.6993 60 13.3569 14.7262 16.2492 17.9648 19.9288 22.2257 24.9916 28.4686 33.1539 40.3647 56.7378 60 13.9431 15.4635 17.1781 19.144 21.4476 24.2295 27.742 32.5107 39.9707 58.1892 60 14.4007 15.9738 17.8019 19.9843 22.6917 26.26 31.506 41.609 60 15.3965 17.5992 20.1509 23.1837 26.9218 31.7963 38.8153 51.5244 60 15.2947 16.8663 18.6624 20.7583 23.2743 26.4221 30.6295 36.9949 50.5069 60 15.6624 17.1421 18.8202 20.7581 23.0516 25.8608 29.4873 34.6111 43.4252 60 16.3265 18.0563 20.0733 22.4921 25.5137 29.5421 35.604 48.2229 60 16.7462 18.3918 20.2847 22.5123 25.2193 28.67 33.4348 41.1807 60 17.1343 18.731 20.629 22.9691 26.0216 30.4203 38.4012 60 17.5852 19.1305 20.854 22.8021 25.0423 27.6778 30.8787 34.956 40.5779 49.6874 60 18.2262 20.0118 22.0514 24.4293 27.2806 30.8418 35.5877 42.7244 57.5422 60 18.5004 20.1072 21.9721 24.1943 26.9438 30.5513 35.8087 45.6652 60 18.6863 19.9627 21.4259 23.1401 25.2097 27.8216 31.3649 36.899 50.3087 60 19.5083 21.2357 23.2699 25.7437 28.9012 33.2708 40.4126 60 19.7525 21.1862 22.794 24.6241 26.7482 29.2789 32.4098 36.517 42.5006 53.707 60 20.403 22.0773 24.0678 26.5227 29.7264 34.3473 42.7527 60 20.9387 22.623 24.5713 26.8818 29.7206 33.4036 38.6554 47.913 60 21.275 22.7774 24.4684 26.402 28.6599 31.373 34.7725 39.328 46.2565 60 21.8455 23.4557 25.339 27.6075 30.4602 34.3066 40.2341 53.7683 60 22.5095 24.2592 26.2217 28.4563 31.0505 34.1428 37.9711 42.9988 50.3393 60 22.8156 24.4083 26.2317 28.3643 30.9328 34.1626 38.5164 45.2232 60 23.2258 24.7413 26.4714 28.487 30.9015 33.9127 37.9155 43.9036 56.1131 60 23.6566 25.0948 26.7626 28.7478 31.2002 34.4095 39.0629 47.6574 60 24.1604 25.5587 27.1196 28.8859 30.9201 33.3181 36.2392 39.9769 45.1731 53.7581 60 24.7133 26.2072 27.9443 30.0193 32.5963 35.9985 41.0173 50.7873 60 25.4423 27.1761 29.1655 31.4993 34.3218 37.8938 42.763 50.4488 60 25.9321 27.6469 29.5727 31.7687 34.3235 37.3776 41.1746 46.1966 53.6321 60 26.4968 28.2313 30.1565 32.3197 34.7881 37.6623 41.1025 45.3875 51.0721 59.5409 60 26.5734 27.7971 29.1675 30.7247 32.5277 34.669 37.3055 40.7373 45.6624 54.4961 60 27.3458 28.8651 30.5722 32.5204 34.789 37.5046 40.8876 45.3769 52.0684 60 27.8825 29.4307 31.2888 33.6132 36.7189 41.4139 51.3526 60 28.4245 29.935 31.6502 33.6344 35.9881 38.8812 42.6366 47.9974 57.4747 60 29.2462 31.0723 33.1549 35.5784 38.4762 42.0806 46.851 53.9241 60 29.8539 31.7643 33.9642 36.5573 39.7154 43.7555 49.3692 58.6334 60 29.9784 31.3485 32.9084 34.7193 36.8776 39.5492 43.0567 48.1749 57.8071 60 30.726 32.3302 34.1708 36.3298 38.941 42.2451 46.7485 53.8544 60 31.3455 33.0966 35.1554 37.6537 40.8314 45.2023 52.2437 60 31.8802 33.5999 35.5405 37.7671 40.379 43.5381 47.5359 52.9854 60 32.5909 34.5 36.6652 39.166 42.1259 45.7521 50.4346 57.0539 60 32.8194 34.3581 36.0867 38.0588 40.3545 43.1012 46.5205 51.0524 57.7912 60 33.7348 35.6417 37.7566 40.1306 42.8359 45.9806 49.7353 54.3952 60 33.8774 35.2872 36.8459 38.5885 40.5643 42.8456 45.5444 48.8484 53.1102 59.1223 60 34.6627 36.305 38.172 40.3353 42.9066 46.0767 50.212 56.1708 60 35.141 36.6674 38.4211 40.4819 42.9807 46.1553 50.5125 57.4978 60 35.7787 37.3929 39.1915 41.2219 43.5531 46.2897 49.6034 53.8041 59.5476 60 36.227 37.648 39.2689 41.1556 43.4126 46.2214 49.9425 55.4704 60 36.7787 38.0751 39.5441 41.2389 43.2418 45.6903 48.841 53.2665 60 37.7306 39.3396 41.151 43.2231 45.644 48.5551 52.2069 57.1096 60 38.2656 39.8054 41.5942 43.7281 46.3731 49.8536 54.955 60 38.9201 40.459 42.2178 44.2698 46.7328 49.8138 53.9306 60 39.7371 41.4471 43.3926 45.6489 48.3348 51.6532 55.9967 60 40.3121 41.8694 43.5981 45.5406 47.7575 50.3391 53.4295 57.2799 60 40.8569 42.3461 44.0555 46.0617 48.4898 51.5658 55.7667 60 41.9392 43.8304 45.9322 48.2978 51.0029 54.1616 57.9571 60 42.2359 43.735 45.3993 47.2698 49.4048 51.8917 54.8698 58.5822 60 43.4373 45.5812 48.0264 50.8719 54.2748 58.5078 60 43.664 45.227 46.9677 48.9317 51.1849 53.8274 57.0224 60 44.3315 45.879 47.6372 49.6726 52.0894 55.064 58.9338 60 45.2366 46.971 48.9397 51.216 53.9141 57.2268 60 45.8753 47.6061 49.6129 52.0008 54.9493 58.8051 60 46.7567 48.6151 50.7071 53.1001 55.8955 59.2564 60 47.1166 48.5331 50.1522 52.0416 54.3102 57.1494 60 48.1131 49.7473 51.5699 53.6304 55.9999 58.7881 60 48.5913 49.9762 51.5518 53.3791 55.5544 58.2419 60 49.4881 51.0928 52.9191 55.0382 57.5621 60 50.3039 51.9618 53.8093 55.8952 58.2904 60 51.0644 52.7775 54.7214 56.9683 59.6302 60 51.7811 53.4763 55.4133 57.6727 60 52.4759 54.0505 55.8119 57.8105 60 53.4998 55.2978 57.3421 59.7113 60 54.1191 55.7439 57.5434 59.5599 60 55.0042 56.6516 58.4906 60 55.7039 57.222 59.0161 60 56.4779 57.8565 59.3985 60 57.6649 59.5209 60 58.1249 59.5361 60 59.0504 60 60 60 0.162974 0.491553 0.496166 0.826756 0.850624 1.17366 1.50837 1.52693 1.86382 1.89658 2.23575 2.25869 2.57912 2.92256 2.93008 3.27133 3.61915 3.65769 4.00798 4.01884 4.35151 4.70582 5.0629 5.07211 5.43076 5.78645 6.15067 6.16644 6.5332 6.56899 6.93086 7.30279 7.33989 7.69996 8.07716 8.10569 8.48571 8.49485 8.86501 9.25035 9.28733 9.67566 9.67747 10.0686 10.0828 10.4768 10.4858 10.8828 10.8962 11.2845 11.6561 12.0481 12.4566 12.4615 12.8731 12.9092 13.3242 13.3627 13.7739 14.1633 14.5769 14.9709 15.3874 15.7889 16.2103 16.6171 17.0613 17.0663 17.5116 17.9415 18.3787 18.8205 19.2567 19.7228 19.7331 20.2033 20.2111 20.6855 20.6892 21.1311 21.5855 22.0667 22.5539 23.0301 23.5297 23.5337 24.0379 24.0431 24.552 24.5554 25.0583 25.567 26.083 26.5539 27.0863 27.6244 27.6486 28.1768 28.7258 28.7326 29.2872 29.3028 29.8633 29.9149 30.4332 30.9967 31.5746 32.1566 32.7472 32.7752 33.3545 33.9582 34.0048 34.6158 34.6278 35.2458 35.2554 35.8805 35.9207 36.5535 36.5734 37.196 37.8438 37.8969 38.5064 39.1629 39.8346 39.8989 40.5626 41.2349 41.9326 41.9371 42.6439 42.6793 43.3957 43.3967 44.1226 44.1279 44.8637 44.883 45.5785 46.3342 46.3604 47.0955 47.8726 47.918 48.7069 48.725 49.5051 50.3173 50.3402 51.165 51.2101 52.0169 52.8439 53.664 54.5408 54.5678 55.4593 55.4664 56.3135 57.2341 57.2689 58.1884 59.1114 60 7.49291 9.2167 11.209 13.5693 16.4649 20.2122 25.531 34.7915 60 7.75936 9.34584 11.1512 13.2456 15.7398 18.8229 22.8623 28.7319 39.6421 60 8.1029 9.61956 11.3274 13.2818 15.5659 18.3143 21.7648 26.4044 33.5118 49.3459 60 8.5704 10.1971 12.0152 14.076 16.4544 19.2665 22.7062 27.1371 33.3723 43.9886 60 8.84788 10.367 12.0949 14.0982 16.4818 19.4246 23.272 28.8403 39.0697 60 9.42249 11.0904 12.9417 15.0216 17.3948 20.1576 23.4636 27.5802 33.0384 41.1606 57.4268 60 9.75211 11.3605 13.1771 15.264 17.7158 20.6877 24.4618 29.6376 37.9199 60 9.91321 11.314 12.9132 14.7766 17.0089 19.7932 23.4956 29.0372 40.3584 60 10.4899 12.0715 13.8397 15.8447 18.1596 20.8984 24.2517 28.5774 34.681 45.1454 60 10.8981 12.5137 14.3269 16.3927 18.7934 21.6586 25.2124 29.8942 36.7716 49.9825 60 11.4969 13.3235 15.4119 17.8498 20.7783 24.4459 29.3562 36.8111 52.8443 60 11.5987 13.0719 14.7381 16.6557 18.9143 21.6618 25.1701 30.0293 37.986 60 11.9437 13.3735 14.9737 16.7906 18.8921 21.3842 24.4461 28.418 34.0813 44.0604 60 12.4956 14.1422 16.0534 18.3309 21.1492 24.8476 30.2393 40.3582 60 12.9378 14.5561 16.3454 18.3461 20.6149 23.2351 26.3356 30.133 35.0345 41.9576 53.8581 60 13.1017 14.4531 15.9407 17.5953 19.4589 21.5923 24.0869 27.0906 30.8657 35.9507 43.7704 60 13.5211 14.908 16.4548 18.203 20.2131 22.5777 25.449 29.1052 34.1439 42.298 60 14.2543 16.0157 18.0339 20.3968 23.2471 26.8393 31.701 39.2545 57.1243 60 14.5622 16.2199 18.2176 20.7317 24.126 29.3716 41.4934 60 15.1371 16.8972 18.8785 21.1447 23.7916 26.9734 30.9628 36.3141 44.471 60 15.4246 16.9785 18.7104 20.6663 22.9128 25.5518 28.75 32.8099 38.3744 47.266 60 15.8858 17.5338 19.4199 21.6246 24.2779 27.6104 32.0936 38.9697 54.3636 60 16.2668 17.8183 19.5808 21.6211 24.0433 27.024 30.9006 36.4548 46.3724 60 16.565 17.9632 19.5607 21.424 23.6595 26.4539 30.1836 35.8088 47.6161 60 17.1203 18.6703 20.4401 22.5023 24.9732 28.0558 32.1561 38.2976 50.8742 60 17.6331 19.1935 20.9359 22.9085 25.1817 27.8637 31.1344 35.3274 41.1761 50.9186 60 18.0339 19.5706 21.3193 23.348 25.7638 28.75 32.6623 38.3468 48.9106 60 18.4935 20.0371 21.8055 23.8757 26.3723 29.5176 33.772 40.3733 55.8995 60 18.8214 20.1901 21.7195 23.452 25.4502 27.8105 30.6938 34.4 39.5951 48.3539 60 19.4242 20.9284 22.5896 24.4446 26.5444 28.9639 31.818 35.2979 39.7572 45.9733 56.3102 60 19.8844 21.4135 23.11 25.015 27.1871 29.7138 32.7336 36.4869 41.4486 48.7873 60 20.5035 22.2771 24.2874 26.6074 29.3503 32.7052 37.0265 43.1062 53.4533 60 20.6875 22.1581 23.8133 25.7062 27.9168 30.5735 33.9031 38.3666 45.161 59.9227 60 21.0807 22.4703 24.045 25.8617 28.0085 30.6327 34.0091 38.7504 46.7806 60 21.662 23.1249 24.7778 26.6773 28.9103 31.6193 35.0637 39.798 47.4129 60 22.345 23.9851 25.8311 27.9422 30.4075 33.3703 37.0836 42.0613 49.638 60 23.0299 24.9875 27.3166 30.1917 33.95 39.3874 49.3661 60 23.1392 24.6362 26.3153 28.2268 30.4457 33.0903 36.3634 40.6601 46.9283 58.7151 60 23.7922 25.5024 27.4441 29.6901 32.3538 35.6269 39.8735 45.9302 56.6113 60 23.9761 25.3807 26.9701 28.8005 30.9582 33.5865 36.9494 41.6241 49.3459 60 24.4846 25.9022 27.4801 29.2595 31.2993 33.689 36.5742 40.2155 45.1553 52.8704 60 25.343 27.2191 29.3402 31.7801 34.6519 38.1419 42.5916 48.7377 58.7366 60 25.6288 27.2848 29.1632 31.3329 33.9013 37.0486 41.1141 46.8648 56.7876 60 26.1236 27.8226 29.773 32.0622 34.8333 38.3446 43.1419 50.7528 60 26.5768 28.1755 29.9754 32.0343 34.4395 37.3315 40.9588 45.8276 53.2589 60 27.1144 28.7604 30.6475 32.8588 35.5291 38.9004 43.477 50.6344 60 27.7146 29.4531 31.4152 33.6673 36.3099 39.5076 43.5574 49.0852 57.8364 60 27.8394 29.1305 30.56 32.1611 33.9808 36.0883 38.5921 41.6766 45.695 51.4714 60 28.6644 30.3176 32.1774 34.303 36.7832 39.7605 43.4855 48.4641 55.9954 60 29.0754 30.6271 32.382 34.4016 36.7802 39.6736 43.368 48.484 56.8586 60 29.6372 31.1973 32.9648 35.0034 37.4116 40.3538 44.1362 49.4396 58.3876 60 30.2341 31.8223 33.6014 35.6234 37.9655 40.7482 44.1768 48.6447 55.0702 60 30.7241 32.2385 33.9393 35.8789 38.1355 40.8335 44.1884 48.6266 55.2014 60 31.1019 32.4536 33.9621 35.6684 37.6324 39.946 42.7614 46.3582 51.3438 59.5239 60 31.7822 33.3246 35.0866 37.1416 39.6066 42.6872 46.7969 52.9899 60 32.3082 33.824 35.5832 37.6793 40.2725 43.6744 48.6305 57.9131 60 33.1233 34.8527 36.7727 38.9309 41.3946 44.265 47.7033 51.991 57.6907 60 33.4892 35.0131 36.7183 38.654 40.8922 43.5453 46.8031 51.0251 57.0339 60 34.0824 35.6151 37.3454 39.332 41.6643 44.4883 48.0683 52.9634 60 34.7294 36.3617 38.2814 40.6118 43.5775 47.6606 54.2534 60 35.346 36.918 38.6643 40.6284 42.8724 45.4897 48.6297 52.5545 57.7922 60 35.7896 37.1946 38.7578 40.5196 42.5378 44.8999 47.7478 51.3345 56.1826 60 36.6494 38.3668 40.3228 42.5948 45.3048 48.6629 53.0802 59.5496 60 37.3229 39.149 41.2951 43.8977 47.205 51.7462 59.0334 60 38.0487 40.001 42.2041 44.7318 47.6968 51.2825 55.8197 60 38.3735 39.9718 41.7655 43.8094 46.1847 49.02 52.5372 57.1721 60 39.2585 41.12 43.2507 45.7421 48.7417 52.5114 57.5882 60 39.9002 41.7902 43.984 46.5985 49.8342 54.0813 60 40.1458 41.5202 43.066 44.832 46.8919 49.363 52.4519 56.5738 60 40.9358 42.4114 44.0533 45.904 48.0243 50.5065 53.5 57.2716 60 41.7391 43.3254 45.1491 47.2938 49.8974 53.211 57.7735 60 42.2966 43.779 45.4474 47.3552 49.583 52.2602 55.6149 60 43.1016 44.7162 46.5296 48.5979 51.0046 53.8824 57.4618 60 43.6972 45.2137 46.9472 48.9701 51.3989 54.4384 58.5029 60 44.4455 45.9878 47.7249 49.7132 52.0378 54.836 58.3516 60 45.3035 46.9659 48.8473 51.0141 53.5688 56.6811 60 46.0508 47.7811 49.7774 52.1366 55.0205 58.7314 60 46.8303 48.507 50.3951 52.5556 55.0803 58.1178 60 47.452 49.0005 50.7932 52.9219 55.5424 58.9523 60 48.2819 49.8733 51.6862 53.7927 56.3063 59.4232 60 49.1162 50.7307 52.5859 54.7666 57.4119 60 49.971 51.6117 53.4626 55.5854 58.0742 60 51.0273 52.9843 55.1964 57.7402 60 51.5919 53.2662 55.2581 57.7169 60 52.2245 53.6898 55.3467 57.2528 59.4966 60 53.1955 54.8318 56.693 58.8508 60 54.1018 55.6946 57.4783 59.505 60 54.8765 56.4164 58.167 60 55.75 57.3055 59.0632 60 56.4973 57.8921 59.472 60 57.4138 58.7603 60 58.5258 60 59.6294 60 60 60 0.209348 0.616706 1.01808 1.42483 1.81609 2.2138 2.63291 3.05851 3.48656 3.50276 3.92672 4.35959 4.38782 4.82327 4.84111 5.25834 5.69871 5.71251 6.14943 6.59489 6.6347 7.08296 7.10946 7.55804 7.99425 8.45044 8.4714 8.92914 9.39087 9.41703 9.85128 10.3132 10.7832 10.785 11.2456 11.7214 11.7341 12.1785 12.6595 13.144 13.1636 13.6512 13.7106 14.1843 14.6784 14.6876 15.1711 15.625 16.1196 16.6253 17.1352 17.158 17.6456 18.1623 18.171 18.6912 18.6936 19.2173 19.2661 19.7937 19.8199 20.3513 20.3721 20.9008 21.4397 21.4571 21.9999 22.0008 22.5162 23.0328 23.5823 24.1401 24.1527 24.6695 25.2091 25.7788 25.7821 26.3514 26.9296 26.9575 27.54 28.1221 28.7136 28.7419 29.3381 29.3419 29.9428 29.9844 30.5903 30.6556 31.2668 31.3009 31.9101 32.5312 32.559 33.1854 33.2132 33.8449 33.8872 34.4734 35.0579 35.7049 35.7061 36.3585 36.3732 37.0313 37.0815 37.7456 37.7574 38.4273 38.4587 39.0338 39.7148 39.774 40.4462 41.1398 41.1668 41.86 42.5338 43.2446 43.9638 43.9768 44.679 45.3328 46.0716 46.1123 46.8586 46.8733 47.6269 47.6281 48.3335 49.1015 49.1726 49.9247 50.7087 50.7261 51.4796 52.2795 52.3272 53.1359 53.1596 53.9735 54.7927 55.6276 55.6473 56.4915 56.5169 57.3435 58.2065 58.3148 59.1886 59.2005 60 8.66808 10.1067 11.7352 13.6116 15.8248 18.5232 21.9807 26.7991 34.8082 60 9.30976 10.9486 12.7796 14.8539 17.246 20.0713 23.5224 27.9576 34.1723 44.6413 60 9.8805 11.6958 13.7708 16.1923 19.0998 22.7384 27.6041 34.9726 50.6706 60 10.1404 11.7331 13.5357 15.6119 18.0597 21.0422 24.8597 30.17 38.9566 60 10.4319 11.8738 13.5106 15.4034 17.6474 20.4033 23.976 29.0634 37.9974 60 11.0208 12.6626 14.5717 16.8522 19.6846 23.4242 28.9417 39.6877 60 11.371 12.8347 14.4627 16.2965 18.3959 20.8511 23.8076 27.5242 32.5323 40.2399 57.7393 60 11.7206 13.0767 14.6178 16.4022 18.5217 21.1318 24.5301 29.4093 38.1731 60 12.3988 13.9529 15.6994 17.6926 20.0141 22.7935 26.2571 30.8559 37.718 51.5895 60 13.0554 14.8224 16.8114 19.0864 21.7437 24.938 28.9431 34.3156 42.5054 60 13.3347 14.8268 16.4784 18.3278 20.429 22.8613 25.7491 29.3032 33.9262 40.5517 52.3917 60 13.8507 15.3835 17.1122 19.0944 21.4174 24.2231 27.7663 32.5786 40.1128 58.5848 60 14.1379 15.502 17.076 18.9365 21.2115 24.1402 28.2571 35.2477 60 14.8548 16.4223 18.1728 20.1548 22.439 25.1345 28.4227 32.6397 38.5264 48.3506 60 15.1946 16.6362 18.293 20.2404 22.6027 25.6058 29.7322 36.3647 55.1538 60 15.9694 17.6982 19.7121 22.1241 25.1312 29.1269 35.0986 47.2355 60 16.3853 17.9469 19.7041 21.7128 24.0574 26.8733 30.3988 35.1166 42.2714 57.5975 60 16.8027 18.2993 20.017 22.0327 24.4716 27.5604 31.7761 38.4492 55.7433 60 17.6425 19.5538 21.7656 24.3901 27.6178 31.8112 37.8073 48.4555 60 17.8636 19.3957 21.1252 23.1107 25.4415 28.2633 31.8399 36.7286 44.4924 60 18.2056 19.5415 21.0335 22.723 24.6704 26.9689 29.7734 33.3715 38.3979 46.801 60 18.9966 20.6117 22.4204 24.4753 26.8543 29.6791 33.1563 37.6805 44.1679 55.7781 60 19.3403 20.7986 22.427 24.2704 26.3944 28.8999 31.9547 35.8694 41.3261 50.4004 60 19.8207 21.2726 22.9371 24.887 27.241 30.2117 34.2414 40.5333 55.7608 60 20.8054 22.7543 24.9568 27.489 30.4672 34.0829 38.6855 45.0245 55.2685 60 21.0951 22.7844 24.6777 26.8314 29.3284 32.2995 35.968 40.7647 47.7087 60 21.3439 22.713 24.2572 26.0277 28.1026 30.6087 33.7736 38.0718 44.801 60 21.994 23.523 25.2299 27.1615 29.3862 32.009 35.2042 39.2935 44.9803 54.3833 60 22.433 23.8894 25.566 27.5414 29.9455 33.0177 37.2786 44.2782 60 23.1239 24.7283 26.5791 28.7661 31.4392 34.8778 39.7047 47.8725 60 23.6666 25.1782 26.899 28.8964 31.2764 34.2214 38.0859 43.7191 54.2876 60 24.2006 25.6896 27.3458 29.2115 31.3476 33.8458 36.8547 40.6381 45.738 53.5932 60 24.8297 26.4409 28.3047 30.5157 33.2334 36.761 41.7971 50.7009 60 25.1921 26.5758 28.141 29.9427 32.0651 34.6477 37.9472 42.5208 50.025 60 25.8447 27.3858 29.1241 31.1174 33.4536 36.2759 39.8409 44.6851 52.2772 60 26.2796 27.7003 29.3209 31.207 33.463 36.2703 39.9884 45.509 56.4843 60 27.0721 28.7286 30.5931 32.7257 35.2165 38.2106 41.9644 46.9993 54.6724 60 27.5179 29.0105 30.6986 32.6408 34.9278 37.7088 41.2577 46.1675 54.1859 60 28.0103 29.4435 31.0676 32.9415 35.1563 37.8641 41.349 46.2455 54.5495 60 28.5999 30.0114 31.5823 33.3535 35.3835 37.7611 40.6304 44.2494 49.1538 56.7955 60 29.627 31.5543 33.7454 36.284 39.3016 43.022 47.8751 54.8685 60 29.9192 31.4333 33.1288 35.0553 37.2857 39.9342 43.1946 47.4373 53.5226 60 30.612 32.2733 34.2435 36.6644 39.8055 44.2855 52.187 60 31.1958 32.7727 34.5831 36.7084 39.2816 42.5437 47.0033 54.0894 60 31.7258 33.1827 34.7937 36.5955 38.6393 41.0004 43.7956 47.2215 51.6481 57.913 60 32.4022 33.9764 35.8134 38.0189 40.7789 44.4691 50.0559 60 32.8346 34.1749 35.7018 37.4759 39.5927 42.2174 45.673 50.7434 60 34.0623 36.1142 38.4355 41.1079 44.2569 48.0902 52.9901 59.7891 60 34.503 36.4165 38.6153 41.1999 44.335 48.3204 53.7961 60 34.8274 36.3949 38.1843 40.269 42.7661 45.88 50.0189 56.209 60 35.5002 37.0683 38.8197 40.803 43.089 45.7872 49.0795 53.3037 59.2053 60 36.0166 37.5353 39.2734 41.305 43.7501 46.8208 50.9518 57.2873 60 36.7255 38.3254 40.12 42.1631 44.5349 47.3618 50.8609 55.455 60 37.543 39.3818 41.5285 44.1074 47.3373 51.6621 58.2298 60 38.0852 39.8012 41.8034 44.2068 47.2134 51.2314 57.3076 60 38.8268 40.5769 42.5841 44.9373 47.7811 51.3753 56.2638 60 39.2514 40.7185 42.3851 44.3138 46.6029 49.4186 53.0783 58.3149 60 39.9765 41.5058 43.2365 45.23 47.5807 50.445 54.112 59.2147 60 40.6539 42.1581 43.8767 45.881 48.2855 51.2907 55.3004 60 41.3956 42.9436 44.6881 46.6863 49.0247 51.8435 55.3925 60 42.0202 43.4697 45.1427 47.121 49.5416 52.6608 57.0533 60 42.9728 44.6118 46.4802 48.6527 51.2481 54.4717 58.7282 60 43.7417 45.3846 47.2213 49.3033 51.7068 54.5493 58.0278 60 44.3418 45.9033 47.6934 49.7909 52.3235 55.5207 59.8597 60 44.9175 46.2668 47.789 49.535 51.5819 54.0557 57.1825 60 46.0586 47.8372 49.8432 52.1437 54.8401 58.0977 60 46.6637 48.2331 49.9827 51.9591 54.2302 56.8995 60 47.3736 49.0172 50.907 53.13 55.8295 59.267 60 48.1513 49.8956 51.8831 54.1928 56.9499 60 48.782 50.3807 52.1893 54.2715 56.725 59.7116 60 49.5223 51.1265 53.0094 55.2889 58.1777 60 50.3353 51.8793 53.6221 55.6227 57.9707 60 51.0841 52.5785 54.2569 56.1713 58.3989 60 52.0191 53.6615 55.5334 57.7096 60 52.5678 54.04 55.6743 57.5111 59.6075 60 53.7091 55.5438 57.6693 60 54.2542 55.7739 57.4785 59.4194 60 55.0734 56.5682 58.2521 60 56.0054 57.6505 59.534 60 57.0221 58.8839 60 57.6621 59.3093 60 58.6815 60 59.5984 60 59.9964 60 60 0.171769 0.52705 0.530843 0.880558 1.22913 1.56233 1.92572 1.92785 2.2934 2.29511 2.64615 3.01599 3.01858 3.37206 3.74629 3.75569 4.13011 4.47213 4.8531 4.86294 5.24633 5.25763 5.63868 6.02692 6.03277 6.40953 6.80115 7.19679 7.2157 7.55744 7.95797 7.96714 8.37035 8.39863 8.80467 8.81953 9.21888 9.62061 10.0348 10.0396 10.4566 10.4734 10.8625 11.2851 11.2919 11.7175 11.718 12.1465 12.1532 12.5847 12.5863 12.997 13.4346 13.4577 13.8985 13.8997 14.3436 14.3962 14.8438 14.8754 15.3002 15.7544 15.7556 16.2132 16.2229 16.684 16.7142 17.1647 17.6075 18.0771 18.5473 19.0233 19.5058 19.5607 20.0316 20.522 20.5402 21.0348 21.06 21.5221 22.0246 22.0442 22.551 22.5826 23.0685 23.5665 24.086 24.1083 24.6324 24.6671 25.1744 25.6988 26.2311 26.7735 26.7815 27.3126 27.8646 28.4027 28.9647 28.9665 29.5336 29.5588 30.1312 30.7092 30.7202 31.3009 31.8847 32.4546 33.0321 33.5887 34.1525 34.7449 35.3679 35.4151 36.0268 36.6588 37.2741 37.9149 38.5709 38.6041 39.2675 39.2974 39.9683 40.0032 40.6547 41.2713 41.9414 42.6417 42.6656 43.3743 43.4245 44.1419 44.1547 44.8782 45.5834 46.3212 47.0734 47.0783 47.8398 47.8606 48.6149 49.3822 50.1728 50.1868 50.9878 50.997 51.8086 51.8159 52.6301 53.4636 53.4671 54.2928 55.0886 55.9562 56.0003 56.8645 57.7576 57.7967 58.6668 59.5865 59.6161 60 7.94639 9.71107 11.7579 14.1946 17.2055 21.1474 26.8676 37.4573 60 8.50826 10.4382 12.6438 15.2171 18.3057 22.1691 27.331 35.134 51.6476 60 8.48428 9.94004 11.5868 13.4823 15.7154 18.433 21.9051 26.719 34.6207 60 9.01049 10.6354 12.492 14.6578 17.2565 20.5056 24.8434 31.3904 45.1656 60 9.68809 11.6767 13.9743 16.6949 20.0303 24.342 30.4495 41.0263 60 9.83008 11.4741 13.3082 15.3824 17.7691 20.5792 23.9964 28.3571 34.39 44.2421 60 9.95087 11.2972 12.8262 14.5952 16.6937 19.2735 22.623 27.4066 35.8734 60 10.4782 11.9861 13.7094 15.7201 18.1338 21.1534 25.1889 31.2924 44.2348 60 10.9308 12.4773 14.2378 16.281 18.7153 21.727 25.6779 31.4335 42.2127 60 11.5546 13.3478 15.3713 17.6933 20.4171 23.7117 27.8814 33.5662 42.5425 60 11.7554 13.3262 15.1426 17.2956 19.9392 23.3651 28.2405 36.7875 60 12.1706 13.7355 15.5391 17.6676 20.264 23.5942 28.2434 36.0042 60 12.5842 14.1542 15.9176 17.9289 20.2695 23.0687 26.5509 31.1611 38.0006 51.5608 60 12.9179 14.3962 16.0881 18.066 20.4464 23.4363 27.4592 33.6312 47.4648 60 13.4464 14.9976 16.7352 18.7102 20.9981 23.7169 27.0673 31.4349 37.7202 49.0813 60 13.8159 15.2938 16.9338 18.776 20.8773 23.3227 26.2475 29.8864 34.7051 41.8568 56.0553 60 14.1341 15.488 17.0045 18.728 20.7242 23.0958 26.0175 29.8242 35.2966 45.1605 60 14.8191 16.4586 18.286 20.3502 22.7218 25.5086 28.8874 33.1797 39.0701 48.5101 60 15.0898 16.567 18.2455 20.189 22.4973 25.3396 29.0396 34.3505 43.881 60 15.5912 17.1097 18.8349 20.832 23.2031 26.121 29.9163 35.3551 45.0713 60 16.0529 17.6794 19.5569 21.7771 24.4937 27.9946 32.9252 41.3379 60 16.7366 18.5795 20.6521 23.0198 25.781 29.093 33.2317 38.752 47.0677 60 16.9368 18.4772 20.2282 22.2566 24.6671 27.6382 31.5118 37.088 47.1771 60 17.3508 18.8544 20.6078 22.7107 25.3382 28.8423 34.1186 45.128 60 18.1443 20.045 22.2672 24.9421 28.3025 32.8258 39.771 55.3887 60 18.2634 19.7477 21.4304 23.3731 25.6707 28.4829 32.1085 37.2187 45.9558 60 18.5222 19.7619 21.1581 22.7563 24.6247 26.8738 29.6995 33.5034 39.3452 52.493 60 19.3142 20.9181 22.7645 24.9399 27.5875 30.971 35.6636 43.373 60 19.8529 21.5524 23.4834 25.7193 28.3745 31.6437 35.8988 42.0045 52.9524 60 20.0973 21.5215 23.1312 24.982 27.1592 29.8029 33.1693 37.8085 45.3156 60 20.7167 22.3256 24.1897 26.4058 29.1385 32.7039 37.8442 47.1829 60 21.2933 22.9749 24.889 27.1105 29.7574 33.032 37.3278 43.586 55.3071 60 21.5799 23.0558 24.7706 26.8166 29.3532 32.6926 37.5911 46.9595 60 22.214 23.8385 25.6624 27.7419 30.1603 33.0499 36.6402 41.3834 48.3902 60 22.8073 24.5178 26.4491 28.6668 31.2707 34.4244 38.424 43.8964 52.6073 60 23.1561 24.6869 26.4025 28.3536 30.6152 33.3054 36.6254 40.9632 47.2335 58.7112 60 23.8977 25.6734 27.735 30.1927 33.2358 37.2334 43.0728 54.0975 60 24.4651 26.2655 28.3552 30.8452 33.9261 37.9687 43.8607 54.9102 60 24.7288 26.2568 27.9978 30.0209 32.4356 35.4309 39.377 45.1747 56.3167 60 25.2254 26.7258 28.4322 30.41 32.7624 35.6652 39.4572 44.9364 54.9557 60 25.9737 27.6943 29.6218 31.8128 34.3509 37.3673 41.0851 45.9324 52.9107 60 26.3953 27.9772 29.7718 31.8454 34.301 37.3117 41.2045 46.7203 56.2805 60 27.1099 28.9308 31.0203 33.4716 36.4367 40.1896 45.3071 53.3901 60 27.5451 29.262 31.1991 33.4213 36.0272 39.1775 43.1617 48.5863 57.1263 60 28.0095 29.6362 31.4602 33.5361 35.9447 38.8135 42.3608 47.0104 53.7728 60 28.8059 30.7302 32.9062 35.4098 38.3574 41.9414 46.5141 52.8382 60 29.0646 30.7176 32.6635 35.0293 38.0471 42.2193 49.022 60 29.9674 31.8978 34.0948 36.6444 39.6815 43.4378 48.3633 55.5324 60 30.243 31.8354 33.5941 35.5582 37.7817 40.3441 43.3673 47.0544 51.7814 58.3757 60 30.941 32.6913 34.6746 36.9626 39.6664 42.9712 47.2231 53.193 60 31.4101 33.0719 35.0457 37.4759 40.6395 45.1802 53.3273 60 31.7733 33.1872 34.7905 36.6419 38.8327 41.5156 44.978 49.867 58.2646 60 32.8441 34.872 37.3202 40.4095 44.5997 51.1409 60 32.9061 34.2227 35.7295 37.4911 39.6113 42.2744 45.8581 51.3575 60 33.5611 34.955 36.5142 38.2834 40.328 42.7499 45.7205 49.5637 55.0157 60 34.3626 36.0223 37.9065 40.0853 42.6684 45.8408 49.9534 55.8098 60 35.0147 36.711 38.6546 40.93 43.6744 47.1327 51.812 59.0783 60 35.4845 36.9881 38.7285 40.7944 43.3364 46.6416 51.3752 59.8174 60 36.1478 37.7176 39.5124 41.6077 44.1249 47.2777 51.4999 57.9128 60 37.0409 38.9326 41.1051 43.6564 46.7472 50.6687 56.0381 60 37.376 38.9294 40.694 42.7364 45.1607 48.1433 52.0209 57.5723 60 38.3267 40.2875 42.6166 45.4853 49.2214 54.5889 60 38.7063 40.3268 42.1646 44.2867 46.7978 49.8732 53.8421 59.4466 60 39.352 40.9824 42.851 45.0393 47.6798 51.0096 55.5205 60 40.0312 41.7017 43.5993 45.7957 48.4032 51.6115 55.7833 60 40.5923 42.1607 43.9633 46.0826 48.6539 51.924 56.4205 60 41.4218 43.1047 44.993 47.1436 49.6415 52.6208 56.3125 60 42.2399 44.118 46.2824 48.8364 51.9516 55.9464 60 42.8313 44.609 46.6895 49.1974 52.355 56.6212 60 43.3255 44.8277 46.5107 48.4237 50.64 53.274 56.5206 60 44.1216 45.7237 47.5007 49.4957 51.7697 54.4136 57.5715 60 44.8438 46.5345 48.4688 50.7291 53.4481 56.8603 60 45.5818 47.3002 49.228 51.4233 53.9727 57.0128 60 46.1741 47.7918 49.5802 51.5795 53.8463 56.4633 59.559 60 46.804 48.3724 50.1068 52.0467 54.2474 56.7901 59.8009 60 47.4807 49.0488 50.836 52.9138 55.3953 58.476 60 48.0829 49.4168 50.9293 52.6759 54.7424 57.2731 60 49.022 50.5685 52.3038 54.2804 56.5763 59.3151 60 49.6352 51.021 52.5839 54.3758 56.4756 59.0115 60 50.4685 51.9552 53.6352 55.5662 57.8369 60 51.1749 52.5674 54.1197 55.8734 57.8885 60 52.1538 53.7143 55.4715 57.482 59.8316 60 53.1304 54.8787 56.909 59.3301 60 53.9133 55.518 57.3056 59.3232 60 54.9464 56.8085 58.8803 60 55.5259 57.2106 59.1101 60 56.3063 57.9507 59.8173 60 57.0655 58.5353 60 57.9161 59.3173 60 59.103 60 59.9255 60 60 0.177327 0.49554 0.825999 1.16411 1.18193 1.52218 1.52417 1.84024 2.17887 2.52517 2.54894 2.89752 2.90687 3.2431 3.59347 3.94856 3.95925 4.31665 4.32595 4.67864 5.03546 5.38875 5.73956 6.08638 6.45749 6.496 6.86981 6.87232 7.23773 7.61648 7.63126 8.01266 8.03182 8.41593 8.42205 8.80761 9.19329 9.56514 9.92246 10.3196 10.3438 10.744 10.7514 11.1544 11.1602 11.5571 11.966 11.979 12.3502 12.7648 12.7832 13.2011 13.2107 13.6317 13.6337 14.0422 14.4682 14.8859 15.3196 15.3731 15.8103 16.2492 16.6736 17.1212 17.144 17.5954 17.5998 18.0323 18.4524 18.9144 18.9288 19.3947 19.3974 19.8513 20.3158 20.7891 21.2673 21.7321 22.2217 22.2422 22.7362 22.7622 23.2609 23.2891 23.7924 23.8009 24.3012 24.8051 25.2786 25.778 26.2932 26.824 26.8764 27.4128 27.4455 27.9758 28.5227 28.5487 29.1012 29.1425 29.7009 29.7159 30.28 30.2809 30.8197 31.3607 31.904 32.4904 32.4942 33.0775 33.6179 34.2224 34.2569 34.8683 34.8796 35.4977 35.5121 36.1373 36.1397 36.7719 36.8093 37.4315 38.0583 38.676 39.3093 39.978 39.9938 40.6494 41.3115 42.0044 42.0643 42.7026 43.4129 43.4275 44.1167 44.845 44.8622 45.5881 46.3309 47.0884 47.1199 47.8881 47.951 48.6977 49.4783 50.2554 50.9514 51.7573 52.5337 53.3795 53.4198 54.2689 55.0758 55.9607 55.9782 56.8774 56.8854 57.7496 58.6776 58.7196 59.6637 59.7407 60 8.02695 9.47719 11.1223 13.023 15.2735 18.0323 21.598 26.6474 35.3851 60 8.31743 9.7102 11.3158 13.2113 15.525 18.495 22.648 29.608 58.7826 60 9.10861 10.9823 13.1506 15.7238 18.8887 23.0012 28.8836 39.3392 60 9.56279 11.4516 13.571 15.9852 18.7897 22.1355 26.2829 31.7407 39.7416 55.0117 60 10.1408 12.2519 14.6327 17.3626 20.5615 24.425 29.3034 35.9275 46.2937 60 10.0147 11.5684 13.2922 15.228 17.4353 20.0028 23.0717 26.8862 31.9292 39.3897 54.0449 60 10.6598 12.5775 14.8154 17.5024 20.865 25.3617 32.171 46.6764 60 10.9469 12.7201 14.7964 17.3012 20.4589 24.7344 31.3832 47.1786 60 11.3738 13.111 15.0549 17.2616 19.8134 22.8386 26.5536 31.3692 38.225